calculator: qe
length_unit: au
nqpoint: 204    
npath: 4      
segment_nqpoint:
- 51
- 51
- 51
- 51
reciprocal_lattice:
- [  -0.00000000,   0.08956948,   0.16304339 ] # a*
- [   0.08956948,   0.00000000,   0.16304339 ] # b*
- [   0.08956948,   0.08956948,   0.00000000 ] # c*
natom: 2      
lattice:
- [    -5.582258567749333,     5.582258567749333,     3.066668362191745 ] # a
- [     5.582258567749333,    -5.582258567749333,     3.066668362191745 ] # b
- [     5.582258567749333,     5.582258567749333,    -3.066668362191745 ] # c
points:
- symbol: Sn # 1
  coordinates: [  0.000000000000000,  0.000000000000000,  0.000000000000000 ]
  mass: 118.710000
- symbol: Sn # 2
  coordinates: [  0.250000000000000,  0.750000000000000,  0.500000000000000 ]
  mass: 118.710000

phonon:
- q-position: [    0.0000000,    0.0000000,    0.0000000 ]
  distance:    0.0000000
  band:
  - # 1
    frequency:   -0.0000000491
    eigenvector:
    - # atom 1
      - [ -0.00000000000000,  0.00000000000000 ]
      - [ -0.00000000000000,  0.00000000000000 ]
      - [ -0.70710678118655,  0.00000000000000 ]
    - # atom 2
      - [  0.00000000000000,  0.00000000000000 ]
      - [ -0.00000000000000,  0.00000000000000 ]
      - [ -0.70710678118655,  0.00000000000000 ]
  - # 2
    frequency:   -0.0000000254
    eigenvector:
    - # atom 1
      - [ -0.00000000000000,  0.00000000000000 ]
      - [ -0.70710678118655,  0.00000000000000 ]
      - [  0.00000000000000,  0.00000000000000 ]
    - # atom 2
      - [  0.00000000000000,  0.00000000000000 ]
      - [ -0.70710678118655,  0.00000000000000 ]
      - [  0.00000000000000,  0.00000000000000 ]
  - # 3
    frequency:    0.0000000000
    eigenvector:
    - # atom 1
      - [ -0.70710678118655,  0.00000000000000 ]
      - [  0.00000000000000,  0.00000000000000 ]
      - [ -0.00000000000000,  0.00000000000000 ]
    - # atom 2
      - [ -0.70710678118655,  0.00000000000000 ]
      - [  0.00000000000000,  0.00000000000000 ]
      - [ -0.00000000000000,  0.00000000000000 ]
  - # 4
    frequency:    1.5800532401
    eigenvector:
    - # atom 1
      - [  0.00000000000000,  0.00000000000000 ]
      - [ -0.00000000000000,  0.00000000000000 ]
      - [  0.70710678118655,  0.00000000000000 ]
    - # atom 2
      - [  0.00000000000000,  0.00000000000000 ]
      - [  0.00000000000000,  0.00000000000000 ]
      - [ -0.70710678118655,  0.00000000000000 ]
  - # 5
    frequency:    3.5861697326
    eigenvector:
    - # atom 1
      - [  0.00000000000000,  0.00000000000000 ]
      - [  0.70710678118655,  0.00000000000000 ]
      - [ -0.00000000000000,  0.00000000000000 ]
    - # atom 2
      - [  0.00000000000000,  0.00000000000000 ]
      - [ -0.70710678118655,  0.00000000000000 ]
      - [ -0.00000000000000,  0.00000000000000 ]
  - # 6
    frequency:    3.5861697326
    eigenvector:
    - # atom 1
      - [ -0.70710678118655,  0.00000000000000 ]
      - [  0.00000000000000,  0.00000000000000 ]
      - [  0.00000000000000,  0.00000000000000 ]
    - # atom 2
      - [  0.70710678118655,  0.00000000000000 ]
      - [  0.00000000000000,  0.00000000000000 ]
      - [  0.00000000000000,  0.00000000000000 ]

- q-position: [    0.0100000,    0.0000000,    0.0000000 ]
  distance:    0.0018603
  band:
  - # 1
    frequency:    0.0395020237
    eigenvector:
    - # atom 1
      - [ -0.70710678118655,  0.00000000000000 ]
      - [  0.00000000000000,  0.00000000000000 ]
      - [ -0.00000000000000, -0.00000000000000 ]
    - # atom 2
      - [ -0.70695559786668,  0.01462130790895 ]
      - [ -0.00000000000000,  0.00000000000000 ]
      - [ -0.00000000000000,  0.00000000000000 ]
  - # 2
    frequency:    0.0636197231
    eigenvector:
    - # atom 1
      - [  0.00000000000000,  0.00000000000000 ]
      - [ -0.59205370388902,  0.00617579173891 ]
      - [  0.38630082900937,  0.01435063811697 ]
    - # atom 2
      - [ -0.00000000000000,  0.00000000000000 ]
      - [ -0.59207695440908, -0.00325710760845 ]
      - [  0.38622539175472, -0.01625478611369 ]
  - # 3
    frequency:    0.0835890590
    eigenvector:
    - # atom 1
      - [  0.00000000000000,  0.00000000000000 ]
      - [  0.38608194339803, -0.00689300410695 ]
      - [  0.59225786819174, -0.01112820926134 ]
    - # atom 2
      - [  0.00000000000000, -0.00000000000000 ]
      - [  0.38610542368482,  0.00542054653912 ]
      - [  0.59229600099207,  0.00886942417435 ]
  - # 4
    frequency:    1.5822253619
    eigenvector:
    - # atom 1
      - [  0.00000000000000,  0.00000000000000 ]
      - [  0.00253438529449,  0.01810353588067 ]
      - [ -0.70050469832063,  0.09465202856000 ]
    - # atom 2
      - [ -0.00000000000000,  0.00000000000000 ]
      - [  0.00236023970677,  0.01812706233040 ]
      - [  0.70050903266524, -0.09461994522411 ]
  - # 5
    frequency:    3.5865713096
    eigenvector:
    - # atom 1
      - [ -0.00000000000000,  0.00000000000000 ]
      - [ -0.70707888629453,  0.00572522666422 ]
      - [  0.00009550486502,  0.00258093296107 ]
    - # atom 2
      - [ -0.00000000000000,  0.00000000000000 ]
      - [  0.70704602816355,  0.00890189429409 ]
      - [ -0.00010709937582,  0.00258047783413 ]
  - # 6
    frequency:    3.5868712925
    eigenvector:
    - # atom 1
      - [ -0.70710678118655,  0.00000000000000 ]
      - [  0.00000000000000,  0.00000000000000 ]
      - [  0.00000000000000,  0.00000000000000 ]
    - # atom 2
      - [  0.70695559786668, -0.01462130790895 ]
      - [  0.00000000000000, -0.00000000000000 ]
      - [  0.00000000000000, -0.00000000000000 ]

- q-position: [    0.0200000,    0.0000000,    0.0000000 ]
  distance:    0.0037205
  band:
  - # 1
    frequency:    0.0789683281
    eigenvector:
    - # atom 1
      - [ -0.70710678118655,  0.00000000000000 ]
      - [ -0.00000000000004, -0.00000000000000 ]
      - [  0.00000000000001,  0.00000000000000 ]
    - # atom 2
      - [ -0.70650373338728,  0.02919716955169 ]
      - [ -0.00000000000004, -0.00000000000000 ]
      - [  0.00000000000001, -0.00000000000000 ]
  - # 2
    frequency:    0.1271418918
    eigenvector:
    - # atom 1
      - [  0.00000000000004,  0.00000000000000 ]
      - [ -0.59224421387112, -0.00274428445784 ]
      - [  0.38439239222462,  0.03849349086311 ]
    - # atom 2
      - [  0.00000000000004, -0.00000000000000 ]
      - [ -0.59185525623378, -0.02163551777658 ]
      - [  0.38565106490383, -0.02263882014441 ]
  - # 3
    frequency:    0.1670256956
    eigenvector:
    - # atom 1
      - [ -0.00000000000001,  0.00000000000000 ]
      - [  0.38461824336523, -0.00004380411856 ]
      - [  0.59335285418480, -0.00109333553306 ]
    - # atom 2
      - [ -0.00000000000001,  0.00000000000000 ]
      - [  0.38383405712182,  0.02454814945286 ]
      - [  0.59207773323076,  0.03889425104266 ]
  - # 4
    frequency:    1.5887175719
    eigenvector:
    - # atom 1
      - [  0.00000000000000,  0.00000000000000 ]
      - [ -0.02858237001966, -0.02276048174151 ]
      - [  0.44509761136829, -0.54822725666387 ]
    - # atom 2
      - [  0.00000000000000, -0.00000000000000 ]
      - [ -0.02813822291229, -0.02330733396133 ]
      - [ -0.44529799717793,  0.54806450560520 ]
  - # 5
    frequency:    3.5877674605
    eigenvector:
    - # atom 1
      - [ -0.00000000000006,  0.00000000000000 ]
      - [  0.70707708265222,  0.00388236703720 ]
      - [ -0.00026931470649, -0.00518207331133 ]
    - # atom 2
      - [  0.00000000000006, -0.00000000000000 ]
      - [ -0.70631182497490, -0.03311615144326 ]
      - [  0.00054006408880, -0.00516088606686 ]
  - # 6
    frequency:    3.5889684685
    eigenvector:
    - # atom 1
      - [ -0.70710678118655,  0.00000000000000 ]
      - [ -0.00000000000006, -0.00000000000000 ]
      - [  0.00000000000000,  0.00000000000000 ]
    - # atom 2
      - [  0.70650373338728, -0.02919716955169 ]
      - [  0.00000000000006,  0.00000000000000 ]
      - [ -0.00000000000000,  0.00000000000000 ]

- q-position: [    0.0300000,    0.0000000,    0.0000000 ]
  distance:    0.0055808
  band:
  - # 1
    frequency:    0.1183627554
    eigenvector:
    - # atom 1
      - [ -0.70710678118655,  0.00000000000000 ]
      - [  0.00000000000001, -0.00000000000000 ]
      - [ -0.00000000000000, -0.00000000000000 ]
    - # atom 2
      - [ -0.70575618296910,  0.04368306537880 ]
      - [  0.00000000000001, -0.00000000000000 ]
      - [ -0.00000000000000,  0.00000000000000 ]
  - # 2
    frequency:    0.1904690409
    eigenvector:
    - # atom 1
      - [ -0.00000000000001,  0.00000000000000 ]
      - [ -0.59153222520131,  0.03420369787748 ]
      - [  0.38450380597754,  0.03281092483740 ]
    - # atom 2
      - [ -0.00000000000001,  0.00000000000000 ]
      - [ -0.59249183833236,  0.00580412867219 ]
      - [  0.38141198288279, -0.05869099516378 ]
  - # 3
    frequency:    0.2501587815
    eigenvector:
    - # atom 1
      - [ -0.00000000000000,  0.00000000000000 ]
      - [ -0.38142175849308,  0.02238942759491 ]
      - [ -0.59389074712186,  0.03619304025724 ]
    - # atom 2
      - [ -0.00000000000000,  0.00000000000000 ]
      - [ -0.38180465251876, -0.01445861801873 ]
      - [ -0.59451460307909, -0.02384412727967 ]
  - # 4
    frequency:    1.5994583469
    eigenvector:
    - # atom 1
      - [  0.00000000000000,  0.00000000000000 ]
      - [  0.03973682327887, -0.03766134766853 ]
      - [  0.47779015371263,  0.51838130443019 ]
    - # atom 2
      - [  0.00000000000000,  0.00000000000000 ]
      - [  0.04081433383994, -0.03649085345273 ]
      - [ -0.47715264108944, -0.51896817327160 ]
  - # 5
    frequency:    3.5897325957
    eigenvector:
    - # atom 1
      - [ -0.00000000000002,  0.00000000000000 ]
      - [ -0.70562418642256,  0.04508885209128 ]
      - [  0.00116445312133,  0.00775544979467 ]
    - # atom 2
      - [  0.00000000000002, -0.00000000000000 ]
      - [  0.70706214482043, -0.00127295300437 ]
      - [ -0.00065345555970,  0.00781511026287 ]
  - # 6
    frequency:    3.5924388956
    eigenvector:
    - # atom 1
      - [ -0.70710678118655,  0.00000000000000 ]
      - [  0.00000000000002, -0.00000000000000 ]
      - [ -0.00000000000000, -0.00000000000000 ]
    - # atom 2
      - [  0.70575618296910, -0.04368306537880 ]
      - [ -0.00000000000002,  0.00000000000000 ]
      - [  0.00000000000000, -0.00000000000000 ]

- q-position: [    0.0400000,    0.0000000,    0.0000000 ]
  distance:    0.0074411
  band:
  - # 1
    frequency:    0.1576482973
    eigenvector:
    - # atom 1
      - [ -0.70710678118655,  0.00000000000000 ]
      - [ -0.00000000000001,  0.00000000000000 ]
      - [  0.00000000000000,  0.00000000000000 ]
    - # atom 2
      - [ -0.70472107153152,  0.05803629329531 ]
      - [ -0.00000000000001, -0.00000000000000 ]
      - [  0.00000000000000, -0.00000000000000 ]
  - # 2
    frequency:    0.2535039131
    eigenvector:
    - # atom 1
      - [  0.00000000000001,  0.00000000000000 ]
      - [ -0.59240653834283,  0.02388716625705 ]
      - [  0.38098391127455,  0.05775080923089 ]
    - # atom 2
      - [  0.00000000000001, -0.00000000000000 ]
      - [ -0.59271944164922, -0.01413389097736 ]
      - [  0.37998182419315, -0.06401335719771 ]
  - # 3
    frequency:    0.3328397611
    eigenvector:
    - # atom 1
      - [ -0.00000000000000,  0.00000000000000 ]
      - [  0.37807289333123, -0.01854708261355 ]
      - [  0.59647156336117, -0.03063604341559 ]
    - # atom 2
      - [ -0.00000000000000,  0.00000000000000 ]
      - [  0.37729881845657,  0.03047471963118 ]
      - [  0.59520692134737,  0.04945314787625 ]
  - # 4
    frequency:    1.6143315296
    eigenvector:
    - # atom 1
      - [  0.00000000000000,  0.00000000000000 ]
      - [ -0.06690729353893, -0.02891066923060 ]
      - [  0.29059145706344, -0.64050307755520 ]
    - # atom 2
      - [  0.00000000000000, -0.00000000000000 ]
      - [ -0.06572918806701, -0.03149740560931 ]
      - [ -0.29244634958517,  0.63965828368766 ]
  - # 5
    frequency:    3.5924245638
    eigenvector:
    - # atom 1
      - [ -0.00000000000001,  0.00000000000000 ]
      - [  0.70653296239894, -0.02644900737781 ]
      - [ -0.00157259822133, -0.01044748713075 ]
    - # atom 2
      - [  0.00000000000001, -0.00000000000000 ]
      - [ -0.70630537774556, -0.03195450383260 ]
      - [  0.00165397199344, -0.01043491395066 ]
  - # 6
    frequency:    3.5972457819
    eigenvector:
    - # atom 1
      - [ -0.70710678118655,  0.00000000000000 ]
      - [ -0.00000000000001,  0.00000000000000 ]
      - [  0.00000000000000,  0.00000000000000 ]
    - # atom 2
      - [  0.70472107153152, -0.05803629329531 ]
      - [  0.00000000000001,  0.00000000000000 ]
      - [ -0.00000000000000,  0.00000000000000 ]

- q-position: [    0.0500000,    0.0000000,    0.0000000 ]
  distance:    0.0093013
  band:
  - # 1
    frequency:    0.1967867376
    eigenvector:
    - # atom 1
      - [ -0.70710678118655,  0.00000000000000 ]
      - [ -0.00000000000001,  0.00000000000000 ]
      - [  0.00000000000000,  0.00000000000000 ]
    - # atom 2
      - [ -0.70340936534333,  0.07221678992650 ]
      - [ -0.00000000000001, -0.00000000000000 ]
      - [  0.00000000000000, -0.00000000000000 ]
  - # 2
    frequency:    0.3161496352
    eigenvector:
    - # atom 1
      - [  0.00000000000001,  0.00000000000000 ]
      - [ -0.59327090876518,  0.00929930778375 ]
      - [  0.37510080669956,  0.08510309336926 ]
    - # atom 2
      - [  0.00000000000001, -0.00000000000000 ]
      - [ -0.59209811535410, -0.03842746552198 ]
      - [  0.37882804622651, -0.06657674578923 ]
  - # 3
    frequency:    0.4149239001
    eigenvector:
    - # atom 1
      - [  0.00000000000000,  0.00000000000000 ]
      - [ -0.37392253909183,  0.00612147013559 ]
      - [ -0.60002174524811,  0.01087968712337 ]
    - # atom 2
      - [  0.00000000000000, -0.00000000000000 ]
      - [ -0.36992634535930, -0.05486380087650 ]
      - [ -0.59347127832768, -0.08908593695195 ]
  - # 4
    frequency:    1.6331805769
    eigenvector:
    - # atom 1
      - [  0.00000000000000,  0.00000000000000 ]
      - [ -0.08962566984119, -0.01529215885642 ]
      - [  0.13295780274280, -0.68851696556645 ]
    - # atom 2
      - [  0.00000000000000, -0.00000000000000 ]
      - [ -0.08876613978665, -0.01967697243858 ]
      - [ -0.13682569682602,  0.68775876429974 ]
  - # 5
    frequency:    3.5957853854
    eigenvector:
    - # atom 1
      - [ -0.00000000000001,  0.00000000000000 ]
      - [  0.70692398030620, -0.00891567727299 ]
      - [ -0.00199976071061, -0.01322867052649 ]
    - # atom 2
      - [  0.00000000000001, -0.00000000000000 ]
      - [ -0.70408140481021, -0.06395606799738 ]
      - [  0.00302416216561, -0.01303269772512 ]
  - # 6
    frequency:    3.6033386137
    eigenvector:
    - # atom 1
      - [ -0.70710678118655,  0.00000000000000 ]
      - [ -0.00000000000001,  0.00000000000000 ]
      - [  0.00000000000000,  0.00000000000000 ]
    - # atom 2
      - [  0.70340936534333, -0.07221678992650 ]
      - [  0.00000000000001,  0.00000000000000 ]
      - [ -0.00000000000000,  0.00000000000000 ]

- q-position: [    0.0600000,    0.0000000,    0.0000000 ]
  distance:    0.0111616
  band:
  - # 1
    frequency:    0.2357383692
    eigenvector:
    - # atom 1
      - [ -0.70710678118655,  0.00000000000000 ]
      - [ -0.00000000000001,  0.00000000000000 ]
      - [  0.00000000000000,  0.00000000000000 ]
    - # atom 2
      - [ -0.70183449180589,  0.08618785361971 ]
      - [ -0.00000000000001, -0.00000000000000 ]
      - [  0.00000000000000, -0.00000000000000 ]
  - # 2
    frequency:    0.3783099768
    eigenvector:
    - # atom 1
      - [  0.00000000000001,  0.00000000000000 ]
      - [ -0.59386266204052,  0.00389331075834 ]
      - [  0.36881407298292,  0.10624575443392 ]
    - # atom 2
      - [  0.00000000000001, -0.00000000000000 ]
      - [ -0.59144689395054, -0.05365250106727 ]
      - [  0.37642111009730, -0.07496084737116 ]
  - # 3
    frequency:    0.4962714808
    eigenvector:
    - # atom 1
      - [  0.00000000000000,  0.00000000000000 ]
      - [ -0.36839801849448,  0.00441121402142 ]
      - [ -0.60349590470105,  0.00749227397144 ]
    - # atom 2
      - [  0.00000000000000, -0.00000000000000 ]
      - [ -0.36201877562084, -0.06840296000753 ]
      - [ -0.59299941547512, -0.11231711537588 ]
  - # 4
    frequency:    1.6558139224
    eigenvector:
    - # atom 1
      - [  0.00000000000000,  0.00000000000000 ]
      - [ -0.10800836897382, -0.01324517426661 ]
      - [  0.10232519844022, -0.69114999193694 ]
    - # atom 2
      - [  0.00000000000000, -0.00000000000000 ]
      - [ -0.10702858913433, -0.01965002589443 ]
      - [ -0.10897599994854,  0.69013258800427 ]
  - # 5
    frequency:    3.5997422545
    eigenvector:
    - # atom 1
      - [ -0.00000000000002,  0.00000000000000 ]
      - [  0.70690934118193, -0.00365552536183 ]
      - [ -0.00270145845032, -0.01607863819777 ]
    - # atom 2
      - [  0.00000000000002, -0.00000000000000 ]
      - [ -0.70195771605972, -0.08360349502365 ]
      - [  0.00450306479962, -0.01566980827783 ]
  - # 6
    frequency:    3.6106541091
    eigenvector:
    - # atom 1
      - [ -0.70710678118655,  0.00000000000000 ]
      - [ -0.00000000000002,  0.00000000000000 ]
      - [  0.00000000000000,  0.00000000000000 ]
    - # atom 2
      - [  0.70183449180589, -0.08618785361971 ]
      - [  0.00000000000002,  0.00000000000000 ]
      - [ -0.00000000000000,  0.00000000000000 ]

- q-position: [    0.0700000,    0.0000000,    0.0000000 ]
  distance:    0.0130219
  band:
  - # 1
    frequency:    0.2744618040
    eigenvector:
    - # atom 1
      - [ -0.70710678118655,  0.00000000000000 ]
      - [ -0.00000000000000,  0.00000000000000 ]
      - [  0.00000000000000,  0.00000000000000 ]
    - # atom 2
      - [ -0.70001188826193,  0.09991674680440 ]
      - [ -0.00000000000000, -0.00000000000000 ]
      - [  0.00000000000000, -0.00000000000000 ]
  - # 2
    frequency:    0.4398897088
    eigenvector:
    - # atom 1
      - [ -0.00000000000000,  0.00000000000000 ]
      - [  0.59428053022928, -0.01492988225707 ]
      - [ -0.36459311508598, -0.11695986678386 ]
    - # atom 2
      - [ -0.00000000000000,  0.00000000000000 ]
      - [  0.59213228780483,  0.05264602295351 ]
      - [ -0.37128575339300,  0.09356622966429 ]
  - # 3
    frequency:    0.5767489195
    eigenvector:
    - # atom 1
      - [  0.00000000000000,  0.00000000000000 ]
      - [ -0.36174374829290,  0.01061243523863 ]
      - [ -0.60724819955869,  0.01668714840955 ]
    - # atom 2
      - [  0.00000000000000, -0.00000000000000 ]
      - [ -0.35425395000792, -0.07399528440705 ]
      - [ -0.59487339422181, -0.12310354030789 ]
  - # 4
    frequency:    1.6820109893
    eigenvector:
    - # atom 1
      - [  0.00000000000000,  0.00000000000000 ]
      - [ -0.11788927011849, -0.04597265732059 ]
      - [  0.27051869727743, -0.64094326519056 ]
    - # atom 2
      - [  0.00000000000000, -0.00000000000000 ]
      - [ -0.11437177177676, -0.05413375149416 ]
      - [ -0.28018853540959,  0.63677548586204 ]
  - # 5
    frequency:    3.6042087822
    eigenvector:
    - # atom 1
      - [ -0.00000000000000,  0.00000000000000 ]
      - [  0.70679199196188, -0.00838460874910 ]
      - [ -0.00375610720934, -0.01899131626064 ]
    - # atom 2
      - [  0.00000000000000, -0.00000000000000 ]
      - [ -0.70066477039327, -0.09324216371938 ]
      - [  0.00601063111611, -0.01840246582025 ]
  - # 6
    frequency:    3.6191173851
    eigenvector:
    - # atom 1
      - [ -0.70710678118655,  0.00000000000000 ]
      - [ -0.00000000000000,  0.00000000000000 ]
      - [  0.00000000000000,  0.00000000000000 ]
    - # atom 2
      - [  0.70001188826193, -0.09991674680440 ]
      - [  0.00000000000000,  0.00000000000000 ]
      - [ -0.00000000000000,  0.00000000000000 ]

- q-position: [    0.0800000,    0.0000000,    0.0000000 ]
  distance:    0.0148821
  band:
  - # 1
    frequency:    0.3129138850
    eigenvector:
    - # atom 1
      - [ -0.70710678118655,  0.00000000000000 ]
      - [  0.00000000000000,  0.00000000000000 ]
      - [ -0.00000000000000, -0.00000000000000 ]
    - # atom 2
      - [ -0.69795850339316,  0.11337516280555 ]
      - [ -0.00000000000000,  0.00000000000000 ]
      - [ -0.00000000000000,  0.00000000000000 ]
  - # 2
    frequency:    0.5007950764
    eigenvector:
    - # atom 1
      - [  0.00000000000000,  0.00000000000000 ]
      - [ -0.54114429499576, -0.24761347816339 ]
      - [  0.26236705314960,  0.27751386784621 ]
    - # atom 2
      - [  0.00000000000000, -0.00000000000000 ]
      - [ -0.50421740627732, -0.31609237539302 ]
      - [  0.37602737876791,  0.06673700504445 ]
  - # 3
    frequency:    0.6562297722
    eigenvector:
    - # atom 1
      - [  0.00000000000000,  0.00000000000000 ]
      - [ -0.34072771070782, -0.09756599375940 ]
      - [ -0.58732144055023, -0.17157805654440 ]
    - # atom 2
      - [  0.00000000000000,  0.00000000000000 ]
      - [ -0.30170981317918, -0.18597226839999 ]
      - [ -0.52257783339901, -0.31827332916464 ]
  - # 4
    frequency:    1.7115283991
    eigenvector:
    - # atom 1
      - [  0.00000000000000,  0.00000000000000 ]
      - [ -0.00696093335832,  0.14386283307518 ]
      - [ -0.69018741937762, -0.05381781117085 ]
    - # atom 2
      - [  0.00000000000000,  0.00000000000000 ]
      - [ -0.01861598985976,  0.14282301724574 ]
      - [  0.68881410389334,  0.06921098860716 ]
  - # 5
    frequency:    3.6090864542
    eigenvector:
    - # atom 1
      - [ -0.00000000000000,  0.00000000000000 ]
      - [  0.68666709614751,  0.16726999485154 ]
      - [  0.00079714482597, -0.02254800325623 ]
    - # atom 2
      - [  0.00000000000000,  0.00000000000000 ]
      - [ -0.64999542712927, -0.27748314691223 ]
      - [  0.01287110103863, -0.01853058684365 ]
  - # 6
    frequency:    3.6286433023
    eigenvector:
    - # atom 1
      - [ -0.70710678118655,  0.00000000000000 ]
      - [  0.00000000000000,  0.00000000000000 ]
      - [  0.00000000000000,  0.00000000000000 ]
    - # atom 2
      - [  0.69795850339316, -0.11337516280555 ]
      - [  0.00000000000000, -0.00000000000000 ]
      - [  0.00000000000000, -0.00000000000000 ]

- q-position: [    0.0900000,    0.0000000,    0.0000000 ]
  distance:    0.0167424
  band:
  - # 1
    frequency:    0.3510497073
    eigenvector:
    - # atom 1
      - [ -0.70710678118655,  0.00000000000000 ]
      - [ -0.00000000000000,  0.00000000000000 ]
      - [  0.00000000000000,  0.00000000000000 ]
    - # atom 2
      - [ -0.69569227556431,  0.12653955002354 ]
      - [ -0.00000000000000, -0.00000000000000 ]
      - [  0.00000000000000, -0.00000000000000 ]
  - # 2
    frequency:    0.5609343896
    eigenvector:
    - # atom 1
      - [  0.00000000000000,  0.00000000000000 ]
      - [ -0.58962117906124,  0.08535066610880 ]
      - [  0.36501064024445,  0.10876286822975 ]
    - # atom 2
      - [  0.00000000000000, -0.00000000000000 ]
      - [ -0.59576086496869, -0.00261968977847 ]
      - [  0.34636382175680, -0.15841159040689 ]
  - # 3
    frequency:    0.7345955913
    eigenvector:
    - # atom 1
      - [  0.00000000000000,  0.00000000000000 ]
      - [ -0.34102341067819,  0.05861063158888 ]
      - [ -0.60878810040171,  0.09820832980680 ]
    - # atom 2
      - [  0.00000000000000, -0.00000000000000 ]
      - [ -0.34245849925710, -0.04954138726771 ]
      - [ -0.61117958727374, -0.08202035926564 ]
  - # 4
    frequency:    1.7441059879
    eigenvector:
    - # atom 1
      - [  0.00000000000000,  0.00000000000000 ]
      - [ -0.16057852940162, -0.01472419640539 ]
      - [  0.08384011986983, -0.68335098465989 ]
    - # atom 2
      - [  0.00000000000000, -0.00000000000000 ]
      - [ -0.15852810361111, -0.02951451219379 ]
      - [ -0.10521898613555,  0.68038716837697 ]
  - # 5
    frequency:    3.6142662691
    eigenvector:
    - # atom 1
      - [ -0.00000000000000,  0.00000000000000 ]
      - [  0.69982141162674, -0.09786563235156 ]
      - [ -0.00915248558210, -0.02425988130336 ]
    - # atom 2
      - [  0.00000000000000, -0.00000000000000 ]
      - [ -0.70588748260671, -0.03241222093570 ]
      - [  0.00685856787011, -0.02500539701654 ]
  - # 6
    frequency:    3.6391379448
    eigenvector:
    - # atom 1
      - [ -0.70710678118655,  0.00000000000000 ]
      - [ -0.00000000000000,  0.00000000000000 ]
      - [  0.00000000000000,  0.00000000000000 ]
    - # atom 2
      - [  0.69569227556431, -0.12653955002354 ]
      - [  0.00000000000000,  0.00000000000000 ]
      - [ -0.00000000000000,  0.00000000000000 ]

- q-position: [    0.1000000,    0.0000000,    0.0000000 ]
  distance:    0.0186026
  band:
  - # 1
    frequency:    0.3888227449
    eigenvector:
    - # atom 1
      - [ -0.70710678118655,  0.00000000000000 ]
      - [ -0.00000000000000, -0.00000000000000 ]
      - [  0.00000000000000,  0.00000000000000 ]
    - # atom 2
      - [ -0.69323161150600,  0.13939129387730 ]
      - [ -0.00000000000000, -0.00000000000000 ]
      - [  0.00000000000000, -0.00000000000000 ]
  - # 2
    frequency:    0.6202187304
    eigenvector:
    - # atom 1
      - [  0.00000000000000,  0.00000000000000 ]
      - [ -0.59640949673150, -0.00538635706363 ]
      - [  0.33483067604676,  0.17931848132342 ]
    - # atom 2
      - [  0.00000000000000, -0.00000000000000 ]
      - [ -0.58734213055327, -0.10374257713725 ]
      - [  0.36197108281885, -0.11508099134529 ]
  - # 3
    frequency:    0.8117365925
    eigenvector:
    - # atom 1
      - [  0.00000000000000,  0.00000000000000 ]
      - [ -0.33672346324546,  0.00418322992423 ]
      - [ -0.62176531497145, -0.00277542534314 ]
    - # atom 2
      - [  0.00000000000000, -0.00000000000000 ]
      - [ -0.31698010332003, -0.11368291081705 ]
      - [ -0.58873045892588, -0.19999064133180 ]
  - # 4
    frequency:    1.7794723414
    eigenvector:
    - # atom 1
      - [  0.00000000000000,  0.00000000000000 ]
      - [ -0.17661873197259, -0.02326155128183 ]
      - [  0.11034994070567, -0.67534259034553 ]
    - # atom 2
      - [  0.00000000000000, -0.00000000000000 ]
      - [ -0.17323424665396, -0.04153519035559 ]
      - [ -0.13883514685290,  0.67006680692800 ]
  - # 5
    frequency:    3.6196305206
    eigenvector:
    - # atom 1
      - [ -0.00000000000000,  0.00000000000000 ]
      - [  0.70644192508720,  0.00842849220751 ]
      - [ -0.00660610953673, -0.02872501201011 ]
    - # atom 2
      - [  0.00000000000000, -0.00000000000000 ]
      - [ -0.68992942045882, -0.15208099088041 ]
      - [  0.01295143705393, -0.02647691969302 ]
  - # 6
    frequency:    3.6505001917
    eigenvector:
    - # atom 1
      - [ -0.70710678118655,  0.00000000000000 ]
      - [ -0.00000000000000, -0.00000000000000 ]
      - [  0.00000000000000,  0.00000000000000 ]
    - # atom 2
      - [  0.69323161150600, -0.13939129387730 ]
      - [  0.00000000000000,  0.00000000000000 ]
      - [ -0.00000000000000,  0.00000000000000 ]

- q-position: [    0.1100000,    0.0000000,    0.0000000 ]
  distance:    0.0204629
  band:
  - # 1
    frequency:    0.4261850762
    eigenvector:
    - # atom 1
      - [ -0.70710678118655,  0.00000000000000 ]
      - [  0.00000000000000,  0.00000000000000 ]
      - [ -0.00000000000000, -0.00000000000000 ]
    - # atom 2
      - [ -0.69059488629016,  0.15191676349201 ]
      - [ -0.00000000000000,  0.00000000000000 ]
      - [ -0.00000000000000,  0.00000000000000 ]
  - # 2
    frequency:    0.6785627633
    eigenvector:
    - # atom 1
      - [  0.00000000000000,  0.00000000000000 ]
      - [ -0.59708083395898, -0.00234321975723 ]
      - [  0.32565519198195,  0.19348819854250 ]
    - # atom 2
      - [ -0.00000000000000,  0.00000000000000 ]
      - [ -0.58659801842790, -0.11141713394467 ]
      - [  0.35654526483821, -0.12792365364338 ]
  - # 3
    frequency:    0.8875520893
    eigenvector:
    - # atom 1
      - [  0.00000000000000,  0.00000000000000 ]
      - [ -0.32657690708794,  0.00719941342537 ]
      - [ -0.62712913620877, -0.00217686041147 ]
    - # atom 2
      - [ -0.00000000000000,  0.00000000000000 ]
      - [ -0.30327189994959, -0.12136911673798 ]
      - [ -0.58799293686797, -0.21808254950039 ]
  - # 4
    frequency:    1.8173496742
    eigenvector:
    - # atom 1
      - [  0.00000000000000,  0.00000000000000 ]
      - [ -0.18692661130161,  0.05427976163742 ]
      - [ -0.16953065928157, -0.65830958144891 ]
    - # atom 2
      - [  0.00000000000000, -0.00000000000000 ]
      - [ -0.19196857992359,  0.03218563123876 ]
      - [  0.13283793098775,  0.66668300829913 ]
  - # 5
    frequency:    3.6250546894
    eigenvector:
    - # atom 1
      - [ -0.00000000000000,  0.00000000000000 ]
      - [  0.70621916598664, -0.01230115036295 ]
      - [ -0.00884299248173, -0.03201519603029 ]
    - # atom 2
      - [  0.00000000000000,  0.00000000000000 ]
      - [ -0.69114273242350, -0.14566589211371 ]
      - [  0.01473926938880, -0.02976449614514 ]
  - # 6
    frequency:    3.6626233402
    eigenvector:
    - # atom 1
      - [ -0.70710678118655,  0.00000000000000 ]
      - [  0.00000000000000,  0.00000000000000 ]
      - [  0.00000000000000,  0.00000000000000 ]
    - # atom 2
      - [  0.69059488629016, -0.15191676349201 ]
      - [  0.00000000000000, -0.00000000000000 ]
      - [  0.00000000000000, -0.00000000000000 ]

- q-position: [    0.1200000,    0.0000000,    0.0000000 ]
  distance:    0.0223232
  band:
  - # 1
    frequency:    0.4630876977
    eigenvector:
    - # atom 1
      - [ -0.70710678118655,  0.00000000000000 ]
      - [  0.00000000000000,  0.00000000000000 ]
      - [ -0.00000000000000, -0.00000000000000 ]
    - # atom 2
      - [ -0.68779998203732,  0.16410723539642 ]
      - [  0.00000000000000,  0.00000000000000 ]
      - [ -0.00000000000000,  0.00000000000000 ]
  - # 2
    frequency:    0.7358856318
    eigenvector:
    - # atom 1
      - [  0.00000000000000,  0.00000000000000 ]
      - [  0.59626577156820,  0.04138768655703 ]
      - [ -0.30050661503609, -0.22901956985634 ]
    - # atom 2