Invalid MIT-MAGIC-COOKIE-1 key
     Program PWSCF v.6.6 starts on 18Jun2025 at 10: 1:47 

     This program is part of the open-source Quantum ESPRESSO suite
     for quantum simulation of materials; please cite
         "P. Giannozzi et al., J. Phys.:Condens. Matter 21 395502 (2009);
         "P. Giannozzi et al., J. Phys.:Condens. Matter 29 465901 (2017);
          URL http://www.quantum-espresso.org", 
     in publications or presentations arising from this work. More details at
     http://www.quantum-espresso.org/quote

     Parallel version (MPI), running on     1 processors

     MPI processes distributed on     1 nodes
     Fft bands division:     nmany     =       1
     Reading input from betaSn-002.in

     Current dimensions of program PWSCF are:
     Max number of different atomic species (ntypx) = 10
     Max number of k-points (npk) =  40000
     Max angular momentum in pseudopotentials (lmaxx) =  3

     Subspace diagonalization in iterative solution of the eigenvalue problem:
     a serial algorithm will be used

     Message from routine setup:
     using ibrav=0 with symmetry is DISCOURAGED, use correct ibrav instead

     G-vector sticks info
     --------------------
     sticks:   dense  smooth     PW     G-vecs:    dense   smooth      PW
     Sum       11117   11117   2885               483813   483813   64133



     bravais-lattice index     =            0
     lattice parameter (alat)  =      22.3290  a.u.
     unit-cell volume          =    6115.9888 (a.u.)^3
     number of atoms/cell      =           32
     number of atomic types    =            1
     number of electrons       =       448.00
     number of Kohn-Sham states=          224
     kinetic-energy cutoff     =      70.0000  Ry
     charge density cutoff     =     280.0000  Ry
     convergence threshold     =      1.0E-09
     mixing beta               =       0.7000
     number of iterations used =            8  plain     mixing
     Exchange-correlation= SLA  PW   PSX  PSC
                           (   1   4  10   8   0   0   0)

     celldm(1)=  22.329034  celldm(2)=   0.000000  celldm(3)=   0.000000
     celldm(4)=   0.000000  celldm(5)=   0.000000  celldm(6)=   0.000000

     crystal axes: (cart. coord. in units of alat)
               a(1) = (   1.000000   0.000000   0.000000 )  
               a(2) = (   0.000000   1.000000   0.000000 )  
               a(3) = (   0.000000   0.000000   0.549360 )  

     reciprocal axes: (cart. coord. in units 2 pi/alat)
               b(1) = (  1.000000  0.000000  0.000000 )  
               b(2) = (  0.000000  1.000000  0.000000 )  
               b(3) = (  0.000000  0.000000  1.820301 )  


     PseudoPot. # 1 for Sn read from file:
     ./pseudo/sn_pbesol_v1.4.uspp.F.UPF
     MD5 check sum: 463fec1d5456f1e96ec1bfcad4b7b038
     Pseudo is Ultrasoft + core correction, Zval = 14.0
     Generated by new atomic code, or converted to UPF format
     Using radial grid of  891 points,  6 beta functions with: 
                l(1) =   0
                l(2) =   0
                l(3) =   1
                l(4) =   1
                l(5) =   2
                l(6) =   2
     Q(r) pseudized with  8 coefficients,  rinner =    1.350   1.350   1.350
                                                       1.350   1.350

     atomic species   valence    mass     pseudopotential
        Sn            14.00   118.71000     Sn( 1.00)

      2 Sym. Ops. (no inversion) found



   Cartesian axes

     site n.     atom                  positions (alat units)
         1           Sn  tau(   1) = (   0.9992150   0.0000000   0.5489285  )
         2           Sn  tau(   2) = (   0.5000000   0.0000000   0.0000000  )
         3           Sn  tau(   3) = (   0.0000000   0.5000000   0.0000000  )
         4           Sn  tau(   4) = (   0.5000000   0.5000000   0.0000000  )
         5           Sn  tau(   5) = (   0.0000000   0.0000000   0.2746799  )
         6           Sn  tau(   6) = (   0.5000000   0.0000000   0.2746799  )
         7           Sn  tau(   7) = (   0.0000000   0.5000000   0.2746799  )
         8           Sn  tau(   8) = (   0.5000000   0.5000000   0.2746799  )
         9           Sn  tau(   9) = (   0.2500000   0.0000000   0.0686700  )
        10           Sn  tau(  10) = (   0.7500000   0.0000000   0.0686700  )
        11           Sn  tau(  11) = (   0.2500000   0.5000000   0.0686700  )
        12           Sn  tau(  12) = (   0.7500000   0.5000000   0.0686700  )
        13           Sn  tau(  13) = (   0.2500000   0.0000000   0.3433499  )
        14           Sn  tau(  14) = (   0.7500000   0.0000000   0.3433499  )
        15           Sn  tau(  15) = (   0.2500000   0.5000000   0.3433499  )
        16           Sn  tau(  16) = (   0.7500000   0.5000000   0.3433499  )
        17           Sn  tau(  17) = (   0.2500000   0.2500000   0.1373399  )
        18           Sn  tau(  18) = (   0.7500000   0.2500000   0.1373399  )
        19           Sn  tau(  19) = (   0.2500000   0.7500000   0.1373399  )
        20           Sn  tau(  20) = (   0.7500000   0.7500000   0.1373399  )
        21           Sn  tau(  21) = (   0.2500000   0.2500000   0.4120198  )
        22           Sn  tau(  22) = (   0.7500000   0.2500000   0.4120198  )
        23           Sn  tau(  23) = (   0.2500000   0.7500000   0.4120198  )
        24           Sn  tau(  24) = (   0.7500000   0.7500000   0.4120198  )
        25           Sn  tau(  25) = (   0.0000000   0.2500000   0.2060099  )
        26           Sn  tau(  26) = (   0.5000000   0.2500000   0.2060099  )
        27           Sn  tau(  27) = (   0.0000000   0.7500000   0.2060099  )
        28           Sn  tau(  28) = (   0.5000000   0.7500000   0.2060099  )
        29           Sn  tau(  29) = (   0.0000000   0.2500000   0.4806898  )
        30           Sn  tau(  30) = (   0.5000000   0.2500000   0.4806898  )
        31           Sn  tau(  31) = (   0.0000000   0.7500000   0.4806898  )
        32           Sn  tau(  32) = (   0.5000000   0.7500000   0.4806898  )

     number of k points=     2
                       cart. coord. in units 2pi/alat
        k(    1) = (   0.2500000   0.2500000   0.4550752), wk =   1.0000000
        k(    2) = (   0.2500000  -0.2500000  -0.4550752), wk =   1.0000000

     Dense  grid:   483813 G-vectors     FFT dimensions: ( 120, 120,  72)

     Estimated max dynamical RAM per process >       3.41 GB

     Check: negative core charge=   -0.000002

     Initial potential from superposition of free atoms

     starting charge  415.99867, renormalised to  448.00000
     Starting wfcs are  288 randomized atomic wfcs

     total cpu time spent up to now is       49.5 secs

     Self-consistent Calculation

     iteration #  1     ecut=    70.00 Ry     beta= 0.70
     Davidson diagonalization with overlap
     ethr =  1.00E-02,  avg # of iterations =  2.0

     total cpu time spent up to now is      183.6 secs

     total energy              =   -5078.17101356 Ry
     estimated scf accuracy    <      28.66948845 Ry

     iteration #  2     ecut=    70.00 Ry     beta= 0.70
     Davidson diagonalization with overlap
     ethr =  6.40E-03,  avg # of iterations =  2.0

     total cpu time spent up to now is      317.8 secs

     total energy              =   -5085.54340869 Ry
     estimated scf accuracy    <       0.94053493 Ry

     iteration #  3     ecut=    70.00 Ry     beta= 0.70
     Davidson diagonalization with overlap
     ethr =  2.10E-04,  avg # of iterations =  5.0

     total cpu time spent up to now is      426.5 secs

     total energy              =   -5085.52385666 Ry
     estimated scf accuracy    <       0.10321197 Ry

     iteration #  4     ecut=    70.00 Ry     beta= 0.70
     Davidson diagonalization with overlap
     ethr =  2.30E-05,  avg # of iterations =  9.5

     total cpu time spent up to now is      614.2 secs

     total energy              =   -5085.58505709 Ry
     estimated scf accuracy    <       0.15696008 Ry

     iteration #  5     ecut=    70.00 Ry     beta= 0.70
     Davidson diagonalization with overlap
     ethr =  2.30E-05,  avg # of iterations = 11.0

     total cpu time spent up to now is      737.5 secs

     total energy              =   -5085.57768160 Ry
     estimated scf accuracy    <       0.03107853 Ry

     iteration #  6     ecut=    70.00 Ry     beta= 0.70
     Davidson diagonalization with overlap
     ethr =  6.94E-06,  avg # of iterations =  3.5

     total cpu time spent up to now is      881.0 secs

     total energy              =   -5085.58433418 Ry
     estimated scf accuracy    <       0.00244989 Ry

     iteration #  7     ecut=    70.00 Ry     beta= 0.70
     Davidson diagonalization with overlap
     ethr =  5.47E-07,  avg # of iterations = 10.0

     total cpu time spent up to now is     1044.3 secs

     total energy              =   -5085.58500002 Ry
     estimated scf accuracy    <       0.00199614 Ry

     iteration #  8     ecut=    70.00 Ry     beta= 0.70
     Davidson diagonalization with overlap
     ethr =  4.46E-07,  avg # of iterations =  9.5

     total cpu time spent up to now is     1157.1 secs

     total energy              =   -5085.58495468 Ry
     estimated scf accuracy    <       0.00063300 Ry

     iteration #  9     ecut=    70.00 Ry     beta= 0.70
     Davidson diagonalization with overlap
     ethr =  1.41E-07,  avg # of iterations = 10.0

     total cpu time spent up to now is     1288.2 secs

     total energy              =   -5085.58509127 Ry
     estimated scf accuracy    <       0.00044923 Ry

     iteration # 10     ecut=    70.00 Ry     beta= 0.70
     Davidson diagonalization with overlap
     ethr =  1.00E-07,  avg # of iterations =  7.5

     total cpu time spent up to now is     1397.2 secs

     total energy              =   -5085.58504380 Ry
     estimated scf accuracy    <       0.00039371 Ry

     iteration # 11     ecut=    70.00 Ry     beta= 0.70
     Davidson diagonalization with overlap
     ethr =  8.79E-08,  avg # of iterations = 10.0

     total cpu time spent up to now is     1520.5 secs

     total energy              =   -5085.58506636 Ry
     estimated scf accuracy    <       0.00009875 Ry

     iteration # 12     ecut=    70.00 Ry     beta= 0.70
     Davidson diagonalization with overlap
     ethr =  2.20E-08,  avg # of iterations =  6.0

     total cpu time spent up to now is     1633.5 secs

     total energy              =   -5085.58507300 Ry
     estimated scf accuracy    <       0.00004100 Ry

     iteration # 13     ecut=    70.00 Ry     beta= 0.70
     Davidson diagonalization with overlap
     ethr =  9.15E-09,  avg # of iterations =  9.5

     total cpu time spent up to now is     1757.6 secs

     total energy              =   -5085.58507738 Ry
     estimated scf accuracy    <       0.00001300 Ry

     iteration # 14     ecut=    70.00 Ry     beta= 0.70
     Davidson diagonalization with overlap
     ethr =  2.90E-09,  avg # of iterations =  9.5

     total cpu time spent up to now is     1875.1 secs

     total energy              =   -5085.58507849 Ry
     estimated scf accuracy    <       0.00000458 Ry

     iteration # 15     ecut=    70.00 Ry     beta= 0.70
     Davidson diagonalization with overlap
     ethr =  1.02E-09,  avg # of iterations =  5.5

     total cpu time spent up to now is     1983.7 secs

     total energy              =   -5085.58507865 Ry
     estimated scf accuracy    <       0.00000239 Ry

     iteration # 16     ecut=    70.00 Ry     beta= 0.70
     Davidson diagonalization with overlap
     ethr =  5.35E-10,  avg # of iterations =  9.5

     total cpu time spent up to now is     2102.2 secs

     total energy              =   -5085.58507883 Ry
     estimated scf accuracy    <       0.00000034 Ry

     iteration # 17     ecut=    70.00 Ry     beta= 0.70
     Davidson diagonalization with overlap
     ethr =  7.55E-11,  avg # of iterations =  9.0

     total cpu time spent up to now is     2254.8 secs

     total energy              =   -5085.58507894 Ry
     estimated scf accuracy    <       0.00000007 Ry

     iteration # 18     ecut=    70.00 Ry     beta= 0.70
     Davidson diagonalization with overlap
     ethr =  1.52E-11,  avg # of iterations = 13.0

     total cpu time spent up to now is     2412.9 secs

     total energy              =   -5085.58507895 Ry
     estimated scf accuracy    <       0.00000010 Ry

     iteration # 19     ecut=    70.00 Ry     beta= 0.70
     Davidson diagonalization with overlap
     ethr =  1.52E-11,  avg # of iterations =  7.0

     total cpu time spent up to now is     2521.2 secs

     total energy              =   -5085.58507895 Ry
     estimated scf accuracy    <       0.00000005 Ry

     iteration # 20     ecut=    70.00 Ry     beta= 0.70
     Davidson diagonalization with overlap
     ethr =  1.15E-11,  avg # of iterations = 10.0

     total cpu time spent up to now is     2650.9 secs

     total energy              =   -5085.58507895 Ry
     estimated scf accuracy    <       0.00000003 Ry

     iteration # 21     ecut=    70.00 Ry     beta= 0.70
     Davidson diagonalization with overlap
     ethr =  7.55E-12,  avg # of iterations =  2.0

     total cpu time spent up to now is     2749.8 secs

     total energy              =   -5085.58507895 Ry
     estimated scf accuracy    <       0.00000003 Ry

     iteration # 22     ecut=    70.00 Ry     beta= 0.70
     Davidson diagonalization with overlap
     ethr =  6.25E-12,  avg # of iterations =  2.0

     total cpu time spent up to now is     2849.8 secs

     total energy              =   -5085.58507895 Ry
     estimated scf accuracy    <       0.00000002 Ry

     iteration # 23     ecut=    70.00 Ry     beta= 0.70
     Davidson diagonalization with overlap
     ethr =  4.10E-12,  avg # of iterations = 10.0

     total cpu time spent up to now is     2973.1 secs

     End of self-consistent calculation

          k = 0.2500 0.2500 0.4551 ( 60481 PWs)   bands (ev):

   -11.5568 -11.5314 -11.5183 -11.5180 -11.5146 -11.5143 -11.5016 -11.4941
   -11.4938 -11.4915 -11.4895 -11.4847 -11.4846 -11.4815 -11.4811 -11.4779
   -11.4723 -11.4702 -11.4698 -11.4686 -11.4685 -11.4649 -11.4647 -11.4600
   -11.4521 -11.4469 -11.4416 -11.4398 -11.4397 -11.4380 -11.4298 -11.4296
   -11.4279 -11.4278 -11.4194 -11.4192 -11.4159 -11.4136 -11.4135 -11.4118
   -11.4111 -11.4097 -11.4093 -11.4090 -11.4085 -11.4054 -11.4052 -11.4037
   -11.4034 -11.4032 -11.3956 -11.3953 -11.3930 -11.3929 -11.3826 -11.3805
   -11.3792 -11.3790 -11.3774 -11.3742 -11.3654 -11.3652 -11.3635 -11.3615
   -11.3569 -11.3556 -11.3553 -11.3551 -11.3550 -11.3548 -11.3547 -11.3495
   -11.3487 -11.3484 -11.3483 -11.3467 -11.3456 -11.3431 -11.3429 -11.3417
   -11.3415 -11.3401 -11.3400 -11.3382 -11.3352 -11.3350 -11.3280 -11.3258
   -11.3180 -11.3173 -11.3127 -11.3126 -11.3117 -11.3116 -11.3107 -11.3090
   -11.3064 -11.3049 -11.3022 -11.3021 -11.3000 -11.2974 -11.2973 -11.2949
   -11.2948 -11.2930 -11.2892 -11.2875 -11.2864 -11.2863 -11.2811 -11.2810
   -11.2806 -11.2805 -11.2803 -11.2800 -11.2795 -11.2744 -11.2720 -11.2718
   -11.2695 -11.2694 -11.2688 -11.2687 -11.2678 -11.2676 -11.2668 -11.2620
   -11.2619 -11.2613 -11.2612 -11.2554 -11.2554 -11.2541 -11.2474 -11.2448
   -11.2348 -11.2343 -11.2342 -11.2334 -11.2320 -11.2293 -11.2291 -11.2270
   -11.2266 -11.2265 -11.2253 -11.2248 -11.2059 -11.2011 -11.2007 -11.1956
   -11.1956 -11.1910 -11.1787 -11.1785 -11.1760 -11.1760 -11.1533 -11.1378
    -0.5075   0.0354   0.0374   0.5793   1.1006   1.1024   1.2785   1.6244
     1.6609   1.7958   1.7977   2.3162   2.4089   2.5277   2.7048   2.7434
     2.7451   3.0069   3.0079   3.1689   3.4016   3.4195   4.0810   4.0823
     4.2821   4.3774   4.3977   4.3985   5.3924   5.3939   5.5449   6.1609
     6.2013   6.5593   6.7023   6.7024   6.7422   6.8412   6.8422   7.0171
     7.6489   7.6508   7.7561   7.7579   7.8150   7.9523   8.0993   8.1802
     8.4799   8.4802   8.4923   8.5424   8.6487   8.6495   8.8431   8.9989
     9.0262   9.0276   9.0743   9.2351   9.2367   9.5771   9.5783   9.6945

          k = 0.2500-0.2500-0.4551 ( 60481 PWs)   bands (ev):

   -11.5568 -11.5314 -11.5183 -11.5180 -11.5146 -11.5143 -11.5015 -11.4942
   -11.4938 -11.4914 -11.4896 -11.4847 -11.4846 -11.4815 -11.4812 -11.4779
   -11.4723 -11.4702 -11.4698 -11.4686 -11.4685 -11.4649 -11.4647 -11.4600
   -11.4520 -11.4468 -11.4416 -11.4398 -11.4396 -11.4381 -11.4297 -11.4296
   -11.4279 -11.4278 -11.4194 -11.4192 -11.4157 -11.4137 -11.4136 -11.4118
   -11.4111 -11.4097 -11.4093 -11.4090 -11.4085 -11.4055 -11.4052 -11.4038
   -11.4033 -11.4032 -11.3956 -11.3953 -11.3929 -11.3928 -11.3826 -11.3805
   -11.3792 -11.3790 -11.3774 -11.3743 -11.3654 -11.3652 -11.3634 -11.3614
   -11.3570 -11.3557 -11.3552 -11.3550 -11.3549 -11.3548 -11.3547 -11.3496
   -11.3488 -11.3485 -11.3483 -11.3467 -11.3455 -11.3431 -11.3430 -11.3417
   -11.3414 -11.3402 -11.3401 -11.3382 -11.3352 -11.3350 -11.3281 -11.3259
   -11.3180 -11.3173 -11.3127 -11.3126 -11.3116 -11.3115 -11.3107 -11.3090
   -11.3064 -11.3048 -11.3022 -11.3019 -11.3000 -11.2974 -11.2973 -11.2949
   -11.2948 -11.2931 -11.2891 -11.2876 -11.2864 -11.2863 -11.2811 -11.2811
   -11.2807 -11.2804 -11.2803 -11.2800 -11.2795 -11.2746 -11.2720 -11.2719
   -11.2695 -11.2694 -11.2688 -11.2687 -11.2679 -11.2676 -11.2668 -11.2619
   -11.2619 -11.2613 -11.2613 -11.2554 -11.2553 -11.2541 -11.2473 -11.2448
   -11.2350 -11.2343 -11.2343 -11.2334 -11.2320 -11.2293 -11.2291 -11.2271
   -11.2266 -11.2265 -11.2253 -11.2248 -11.2058 -11.2010 -11.2008 -11.1957
   -11.1955 -11.1910 -11.1787 -11.1786 -11.1760 -11.1759 -11.1533 -11.1379
    -0.5075   0.0354   0.0373   0.5792   1.1007   1.1025   1.2784   1.6266
     1.6588   1.7959   1.7978   2.3164   2.4075   2.5292   2.7049   2.7430
     2.7447   3.0069   3.0078   3.1669   3.4025   3.4216   4.0811   4.0823
     4.2816   4.3760   4.3981   4.3997   5.3923   5.3934   5.5448   6.1623
     6.1999   6.5595   6.7022   6.7024   6.7430   6.8408   6.8417   7.0174
     7.6490   7.6509   7.7561   7.7575   7.8163   7.9537   8.0982   8.1791
     8.4801   8.4810   8.4923   8.5413   8.6487   8.6494   8.8427   8.9988
     9.0265   9.0285   9.0723   9.2356   9.2381   9.5771   9.5778   9.6946

     highest occupied level (ev):     9.6946

!    total energy              =   -5085.58507895 Ry
     estimated scf accuracy    <          6.4E-10 Ry

     The total energy is the sum of the following terms:
     one-electron contribution =   -1852.34314852 Ry
     hartree contribution      =    1240.10973787 Ry
     xc contribution           =   -1361.19363933 Ry
     ewald contribution        =   -3112.15802898 Ry

     convergence has been achieved in  23 iterations

     Forces acting on atoms (cartesian axes, Ry/au):

     atom    1 type  1   force =     0.00139388    0.00000000    0.00037597
     atom    2 type  1   force =    -0.00001552    0.00000000    0.00000841
     atom    3 type  1   force =     0.00004007    0.00000000    0.00001346
     atom    4 type  1   force =    -0.00006582    0.00000000   -0.00000508
     atom    5 type  1   force =     0.00005161    0.00000000   -0.00029338
     atom    6 type  1   force =    -0.00019371    0.00000000   -0.00000877
     atom    7 type  1   force =    -0.00007864    0.00000000   -0.00000394
     atom    8 type  1   force =     0.00002890    0.00000000    0.00000614
     atom    9 type  1   force =    -0.00071087    0.00000000   -0.00019285
     atom   10 type  1   force =    -0.00051713    0.00000000    0.00016295
     atom   11 type  1   force =    -0.00001131    0.00000000   -0.00003746
     atom   12 type  1   force =     0.00002784    0.00000000   -0.00000623
     atom   13 type  1   force =     0.00001765    0.00000000    0.00002622
     atom   14 type  1   force =     0.00001852    0.00000000   -0.00001821
     atom   15 type  1   force =     0.00003211    0.00000000    0.00004212
     atom   16 type  1   force =     0.00000927    0.00000000   -0.00003032
     atom   17 type  1   force =    -0.00001201   -0.00002383    0.00000812
     atom   18 type  1   force =     0.00000241    0.00004926   -0.00000418
     atom   19 type  1   force =    -0.00001201    0.00002383    0.00000812
     atom   20 type  1   force =     0.00000241   -0.00004926   -0.00000418
     atom   21 type  1   force =    -0.00001639   -0.00001745    0.00000070
     atom   22 type  1   force =     0.00000644    0.00003560    0.00000483
     atom   23 type  1   force =    -0.00001639    0.00001745    0.00000070
     atom   24 type  1   force =     0.00000644   -0.00003560    0.00000483
     atom   25 type  1   force =    -0.00000546   -0.00000392    0.00000187
     atom   26 type  1   force =     0.00000334   -0.00000910    0.00000698
     atom   27 type  1   force =    -0.00000546    0.00000392    0.00000187
     atom   28 type  1   force =     0.00000334    0.00000910    0.00000698
     atom   29 type  1   force =     0.00002608    0.00010602   -0.00002050
     atom   30 type  1   force =    -0.00001783    0.00001992   -0.00001733
     atom   31 type  1   force =     0.00002608   -0.00010602   -0.00002050
     atom   32 type  1   force =    -0.00001783   -0.00001992   -0.00001733

     Total force =     0.001762     Total SCF correction =     0.000130


     Computing stress (Cartesian axis) and pressure

          total   stress  (Ry/bohr**3)                   (kbar)     P=      -31.17
  -0.00014371   0.00000000  -0.00000030          -21.14        0.00       -0.04
   0.00000000  -0.00014340   0.00000000            0.00      -21.09        0.00
  -0.00000030   0.00000000  -0.00034862           -0.04        0.00      -51.28


     init_run     :     47.21s CPU     49.43s WALL (       1 calls)
     electrons    :   2855.79s CPU   2923.62s WALL (       1 calls)
     forces       :     19.37s CPU     20.71s WALL (       1 calls)
     stress       :    201.49s CPU    204.59s WALL (       1 calls)

     Called by init_run:
     wfcinit      :     43.77s CPU     45.14s WALL (       1 calls)
     potinit      :      0.85s CPU      0.95s WALL (       1 calls)
     hinit0       :      0.99s CPU      1.02s WALL (       1 calls)

     Called by electrons:
     c_bands      :   2460.93s CPU   2495.41s WALL (      23 calls)
     sum_band     :    342.73s CPU    360.87s WALL (      23 calls)
     v_of_rho     :     14.63s CPU     14.85s WALL (      24 calls)
     newd         :     35.10s CPU     50.26s WALL (      24 calls)
     mix_rho      :      4.12s CPU      4.62s WALL (      23 calls)

     Called by c_bands:
     init_us_2    :     10.42s CPU     11.35s WALL (      98 calls)
     cegterg      :   2401.61s CPU   2433.99s WALL (      46 calls)

     Called by *egterg:
     cdiaghg      :     33.80s CPU     33.82s WALL (     392 calls)
     h_psi        :   1563.48s CPU   1574.39s WALL (     394 calls)
     s_psi        :    216.39s CPU    216.80s WALL (     394 calls)
     g_psi        :      7.42s CPU      7.43s WALL (     346 calls)

     Called by h_psi:
     h_psi:calbec :    200.18s CPU    202.48s WALL (     394 calls)
     vloc_psi     :   1127.29s CPU   1128.23s WALL (     394 calls)
     add_vuspsi   :    230.49s CPU    230.94s WALL (     394 calls)

     General routines
     calbec       :    282.01s CPU    284.77s WALL (     450 calls)
     fft          :      7.94s CPU      7.95s WALL (     289 calls)
     ffts         :      0.76s CPU      0.76s WALL (      23 calls)
     fftw         :   1204.07s CPU   1204.65s WALL (   63844 calls)

     Parallel routines

     PWSCF        :  52m 3.92s CPU  53m18.48s WALL


   This run was terminated on:  10:55: 6  18Jun2025            

=------------------------------------------------------------------------------=
   JOB DONE.
=------------------------------------------------------------------------------=
