32   
2    

1    
  0.0175290548713621   0.0000000000000000   0.0096297578015636
  -0.0013805900    0.0000000000   -0.0003894697
  -0.0000180100    0.0000000000   -0.0000091697
  -0.0000257200    0.0000000000   -0.0000083397
   0.0000561300    0.0000000000    0.0000055203
  -0.0000180900    0.0000000000    0.0002895903
   0.0001568600    0.0000000000    0.0000036803
   0.0000941600    0.0000000000    0.0000036003
  -0.0000402300    0.0000000000   -0.0000066897
   0.0007345400    0.0000000000    0.0002018303
   0.0005131800    0.0000000000   -0.0001544597
  -0.0000038200    0.0000000000    0.0000375003
  -0.0000164700    0.0000000000    0.0000032803
  -0.0000322900    0.0000000000   -0.0000250397
  -0.0000058100    0.0000000000    0.0000188303
  -0.0000445600    0.0000000000   -0.0000448697
   0.0000007400    0.0000000000    0.0000300203
   0.0000030600    0.0000230200   -0.0000083797
   0.0000081300   -0.0000318600    0.0000011703
   0.0000030600   -0.0000230200   -0.0000083797
   0.0000081300    0.0000318600    0.0000011703
   0.0000074300    0.0000141700    0.0000001403
   0.0000031300   -0.0000158900   -0.0000015897
   0.0000074300   -0.0000141700    0.0000001403
   0.0000031300    0.0000158900   -0.0000015897
   0.0000305500    0.0000106000   -0.0000055497
  -0.0000295300    0.0000179900   -0.0000096097
   0.0000305500   -0.0000106000   -0.0000055497
  -0.0000295300   -0.0000179900   -0.0000096097
  -0.0000003300   -0.0001013200    0.0000234403
  -0.0000074500   -0.0000131400    0.0000224703
  -0.0000003300    0.0001013200    0.0000234403
  -0.0000074500    0.0000131400    0.0000224703

1    
 -0.0175290548713621   0.0000000000000000  -0.0096297578015636
   0.0013938797    0.0000000000    0.0003759697
  -0.0000155203    0.0000000000    0.0000084097
   0.0000400697    0.0000000000    0.0000134597
  -0.0000658203    0.0000000000   -0.0000050803
   0.0000516097    0.0000000000   -0.0002933803
  -0.0001937103    0.0000000000   -0.0000087703
  -0.0000786403    0.0000000000   -0.0000039403
   0.0000288997    0.0000000000    0.0000061397
  -0.0007108703    0.0000000000   -0.0001928503
  -0.0005171303    0.0000000000    0.0001629497
  -0.0000113103    0.0000000000   -0.0000374603
   0.0000278397    0.0000000000   -0.0000062303
   0.0000176497    0.0000000000    0.0000262197
   0.0000185197    0.0000000000   -0.0000182103
   0.0000321097    0.0000000000    0.0000421197
   0.0000092697    0.0000000000   -0.0000303203
  -0.0000120103   -0.0000238300    0.0000081197
   0.0000024097    0.0000492600   -0.0000041803
  -0.0000120103    0.0000238300    0.0000081197
   0.0000024097   -0.0000492600   -0.0000041803
  -0.0000163903   -0.0000174500    0.0000006997
   0.0000064397    0.0000356000    0.0000048297
  -0.0000163903    0.0000174500    0.0000006997
   0.0000064397   -0.0000356000    0.0000048297
  -0.0000054603   -0.0000039200    0.0000018697
   0.0000033397   -0.0000091000    0.0000069797
  -0.0000054603    0.0000039200    0.0000018697
   0.0000033397    0.0000091000    0.0000069797
   0.0000260797    0.0001060200   -0.0000205003
  -0.0000178303    0.0000199200   -0.0000173303
   0.0000260797   -0.0001060200   -0.0000205003
  -0.0000178303   -0.0000199200   -0.0000173303
