phonopy:
  version: "2.28.0"
  calculator: qe
  frequency_unit_conversion_factor: 15.633302
  symmetry_tolerance: 1.00000e-05
  configuration:
    cell_filename: "pwscf.in"
    create_displacements: ".true."
    primitive_axes: "auto"
    dim: "2 2 2"
    calculator: "qe"

physical_unit:
  atomic_mass: "AMU"
  length: "au"

space_group:
  type: "I4_1/amd"
  number: 141
  Hall_symbol: "I 4bw 2bw -1bw"

primitive_matrix:
- [ -0.500000000000000,  0.500000000000000,  0.500000000000000 ]
- [  0.500000000000000, -0.500000000000000,  0.500000000000000 ]
- [  0.500000000000000,  0.500000000000000, -0.500000000000000 ]

supercell_matrix:
- [   2,   0,   0 ]
- [   0,   2,   0 ]
- [   0,   0,   2 ]

primitive_cell:
  lattice:
  - [    -5.582258567749333,     5.582258567749332,     3.066668362191745 ] # a
  - [     5.582258567749333,    -5.582258567749331,     3.066668362191745 ] # b
  - [     5.582258567749333,     5.582258567749331,    -3.066668362191745 ] # c
  points:
  - symbol: Sn # 1
    coordinates: [  0.000000000000000,  0.000000000000000,  0.000000000000000 ]
    mass: 118.710000
  - symbol: Sn # 2
    coordinates: [  0.250000000000000,  0.750000000000000,  0.500000000000000 ]
    mass: 118.710000
  reciprocal_lattice: # without 2pi
  - [     0.000000000000000,     0.089569480512543,     0.163043388116037 ] # a*
  - [     0.089569480512543,     0.000000000000000,     0.163043388116037 ] # b*
  - [     0.089569480512543,     0.089569480512543,    -0.000000000000000 ] # c*

unit_cell:
  lattice:
  - [    11.164517135498667,     0.000000000000000,     0.000000000000000 ] # a
  - [     0.000000000000000,    11.164517135498667,     0.000000000000000 ] # b
  - [     0.000000000000000,     0.000000000000000,     6.133336724383490 ] # c
  points:
  - symbol: Sn # 1
    coordinates: [  0.000000000000000,  0.000000000000000,  0.000000000000000 ]
    mass: 118.710000
    reduced_to: 1
  - symbol: Sn # 2
    coordinates: [  0.500000000000000,  0.000000000000000,  0.250000000000000 ]
    mass: 118.710000
    reduced_to: 2
  - symbol: Sn # 3
    coordinates: [  0.500000000000000,  0.500000000000000,  0.500000000000000 ]
    mass: 118.710000
    reduced_to: 1
  - symbol: Sn # 4
    coordinates: [  0.000000000000000,  0.500000000000000,  0.750000000000000 ]
    mass: 118.710000
    reduced_to: 2

supercell:
  lattice:
  - [    22.329034270997333,     0.000000000000000,     0.000000000000000 ] # a
  - [     0.000000000000000,    22.329034270997333,     0.000000000000000 ] # b
  - [     0.000000000000000,     0.000000000000000,    12.266673448766980 ] # c
  points:
  - symbol: Sn # 1
    coordinates: [  0.000000000000000,  0.000000000000000,  0.000000000000000 ]
    mass: 118.710000
    reduced_to: 1
  - symbol: Sn # 2
    coordinates: [  0.500000000000000,  0.000000000000000,  0.000000000000000 ]
    mass: 118.710000
    reduced_to: 1
  - symbol: Sn # 3
    coordinates: [  0.000000000000000,  0.500000000000000,  0.000000000000000 ]
    mass: 118.710000
    reduced_to: 1
  - symbol: Sn # 4
    coordinates: [  0.500000000000000,  0.500000000000000,  0.000000000000000 ]
    mass: 118.710000
    reduced_to: 1
  - symbol: Sn # 5
    coordinates: [  0.000000000000000,  0.000000000000000,  0.500000000000000 ]
    mass: 118.710000
    reduced_to: 1
  - symbol: Sn # 6
    coordinates: [  0.500000000000000,  0.000000000000000,  0.500000000000000 ]
    mass: 118.710000
    reduced_to: 1
  - symbol: Sn # 7
    coordinates: [  0.000000000000000,  0.500000000000000,  0.500000000000000 ]
    mass: 118.710000
    reduced_to: 1
  - symbol: Sn # 8
    coordinates: [  0.500000000000000,  0.500000000000000,  0.500000000000000 ]
    mass: 118.710000
    reduced_to: 1
  - symbol: Sn # 9
    coordinates: [  0.250000000000000,  0.000000000000000,  0.125000000000000 ]
    mass: 118.710000
    reduced_to: 9
  - symbol: Sn # 10
    coordinates: [  0.750000000000000,  0.000000000000000,  0.125000000000000 ]
    mass: 118.710000
    reduced_to: 9
  - symbol: Sn # 11
    coordinates: [  0.250000000000000,  0.500000000000000,  0.125000000000000 ]
    mass: 118.710000
    reduced_to: 9
  - symbol: Sn # 12
    coordinates: [  0.750000000000000,  0.500000000000000,  0.125000000000000 ]
    mass: 118.710000
    reduced_to: 9
  - symbol: Sn # 13
    coordinates: [  0.250000000000000,  0.000000000000000,  0.625000000000000 ]
    mass: 118.710000
    reduced_to: 9
  - symbol: Sn # 14
    coordinates: [  0.750000000000000,  0.000000000000000,  0.625000000000000 ]
    mass: 118.710000
    reduced_to: 9
  - symbol: Sn # 15
    coordinates: [  0.250000000000000,  0.500000000000000,  0.625000000000000 ]
    mass: 118.710000
    reduced_to: 9
  - symbol: Sn # 16
    coordinates: [  0.750000000000000,  0.500000000000000,  0.625000000000000 ]
    mass: 118.710000
    reduced_to: 9
  - symbol: Sn # 17
    coordinates: [  0.250000000000000,  0.250000000000000,  0.250000000000000 ]
    mass: 118.710000
    reduced_to: 1
  - symbol: Sn # 18
    coordinates: [  0.750000000000000,  0.250000000000000,  0.250000000000000 ]
    mass: 118.710000
    reduced_to: 1
  - symbol: Sn # 19
    coordinates: [  0.250000000000000,  0.750000000000000,  0.250000000000000 ]
    mass: 118.710000
    reduced_to: 1
  - symbol: Sn # 20
    coordinates: [  0.750000000000000,  0.750000000000000,  0.250000000000000 ]
    mass: 118.710000
    reduced_to: 1
  - symbol: Sn # 21
    coordinates: [  0.250000000000000,  0.250000000000000,  0.750000000000000 ]
    mass: 118.710000
    reduced_to: 1
  - symbol: Sn # 22
    coordinates: [  0.750000000000000,  0.250000000000000,  0.750000000000000 ]
    mass: 118.710000
    reduced_to: 1
  - symbol: Sn # 23
    coordinates: [  0.250000000000000,  0.750000000000000,  0.750000000000000 ]
    mass: 118.710000
    reduced_to: 1
  - symbol: Sn # 24
    coordinates: [  0.750000000000000,  0.750000000000000,  0.750000000000000 ]
    mass: 118.710000
    reduced_to: 1
  - symbol: Sn # 25
    coordinates: [  0.000000000000000,  0.250000000000000,  0.375000000000000 ]
    mass: 118.710000
    reduced_to: 9
  - symbol: Sn # 26
    coordinates: [  0.500000000000000,  0.250000000000000,  0.375000000000000 ]
    mass: 118.710000
    reduced_to: 9
  - symbol: Sn # 27
    coordinates: [  0.000000000000000,  0.750000000000000,  0.375000000000000 ]
    mass: 118.710000
    reduced_to: 9
  - symbol: Sn # 28
    coordinates: [  0.500000000000000,  0.750000000000000,  0.375000000000000 ]
    mass: 118.710000
    reduced_to: 9
  - symbol: Sn # 29
    coordinates: [  0.000000000000000,  0.250000000000000,  0.875000000000000 ]
    mass: 118.710000
    reduced_to: 9
  - symbol: Sn # 30
    coordinates: [  0.500000000000000,  0.250000000000000,  0.875000000000000 ]
    mass: 118.710000
    reduced_to: 9
  - symbol: Sn # 31
    coordinates: [  0.000000000000000,  0.750000000000000,  0.875000000000000 ]
    mass: 118.710000
    reduced_to: 9
  - symbol: Sn # 32
    coordinates: [  0.500000000000000,  0.750000000000000,  0.875000000000000 ]
    mass: 118.710000
    reduced_to: 9

displacements:
- atom:    1
  displacement:
    [   0.0175290548713621,  0.0000000000000000,  0.0096297578015636 ]
- atom:    1
  displacement:
    [  -0.0175290548713621,  0.0000000000000000, -0.0096297578015636 ]
