phonopy:
  version: "2.28.0"
  calculator: qe

physical_unit:
  atomic_mass: "AMU"
  length: "au"
  force: "Ry/au"

supercell_matrix:
- [   2,   0,   0 ]
- [   0,   2,   0 ]
- [   0,   0,   2 ]

primitive_cell:
  lattice:
  - [    11.164517135498667,     0.000000000000000,     0.000000000000000 ] # a
  - [     0.000000000000000,    11.164517135498667,     0.000000000000000 ] # b
  - [     0.000000000000000,     0.000000000000000,     6.133336724383490 ] # c
  points:
  - symbol: Sn # 1
    coordinates: [  0.000000000000000,  0.000000000000000,  0.000000000000000 ]
    mass: 118.710000
  - symbol: Sn # 2
    coordinates: [  0.500000000000000,  0.000000000000000,  0.250000000000000 ]
    mass: 118.710000
  - symbol: Sn # 3
    coordinates: [  0.500000000000000,  0.500000000000000,  0.500000000000000 ]
    mass: 118.710000
  - symbol: Sn # 4
    coordinates: [  0.000000000000000,  0.500000000000000,  0.750000000000000 ]
    mass: 118.710000
  reciprocal_lattice: # without 2pi
  - [     0.089569480512543,     0.000000000000000,     0.000000000000000 ] # a*
  - [     0.000000000000000,     0.089569480512543,     0.000000000000000 ] # b*
  - [     0.000000000000000,     0.000000000000000,     0.163043388116037 ] # c*

unit_cell:
  lattice:
  - [    11.164517135498667,     0.000000000000000,     0.000000000000000 ] # a
  - [     0.000000000000000,    11.164517135498667,     0.000000000000000 ] # b
  - [     0.000000000000000,     0.000000000000000,     6.133336724383490 ] # c
  points:
  - symbol: Sn # 1
    coordinates: [  0.000000000000000,  0.000000000000000,  0.000000000000000 ]
    mass: 118.710000
  - symbol: Sn # 2
    coordinates: [  0.500000000000000,  0.000000000000000,  0.250000000000000 ]
    mass: 118.710000
  - symbol: Sn # 3
    coordinates: [  0.500000000000000,  0.500000000000000,  0.500000000000000 ]
    mass: 118.710000
  - symbol: Sn # 4
    coordinates: [  0.000000000000000,  0.500000000000000,  0.750000000000000 ]
    mass: 118.710000

supercell:
  lattice:
  - [    22.329034270997333,     0.000000000000000,     0.000000000000000 ] # a
  - [     0.000000000000000,    22.329034270997333,     0.000000000000000 ] # b
  - [     0.000000000000000,     0.000000000000000,    12.266673448766980 ] # c
  points:
  - symbol: Sn # 1
    coordinates: [  0.000000000000000,  0.000000000000000,  0.000000000000000 ]
    mass: 118.710000
  - symbol: Sn # 2
    coordinates: [  0.500000000000000,  0.000000000000000,  0.000000000000000 ]
    mass: 118.710000
  - symbol: Sn # 3
    coordinates: [  0.000000000000000,  0.500000000000000,  0.000000000000000 ]
    mass: 118.710000
  - symbol: Sn # 4
    coordinates: [  0.500000000000000,  0.500000000000000,  0.000000000000000 ]
    mass: 118.710000
  - symbol: Sn # 5
    coordinates: [  0.000000000000000,  0.000000000000000,  0.500000000000000 ]
    mass: 118.710000
  - symbol: Sn # 6
    coordinates: [  0.500000000000000,  0.000000000000000,  0.500000000000000 ]
    mass: 118.710000
  - symbol: Sn # 7
    coordinates: [  0.000000000000000,  0.500000000000000,  0.500000000000000 ]
    mass: 118.710000
  - symbol: Sn # 8
    coordinates: [  0.500000000000000,  0.500000000000000,  0.500000000000000 ]
    mass: 118.710000
  - symbol: Sn # 9
    coordinates: [  0.250000000000000,  0.000000000000000,  0.125000000000000 ]
    mass: 118.710000
  - symbol: Sn # 10
    coordinates: [  0.750000000000000,  0.000000000000000,  0.125000000000000 ]
    mass: 118.710000
  - symbol: Sn # 11
    coordinates: [  0.250000000000000,  0.500000000000000,  0.125000000000000 ]
    mass: 118.710000
  - symbol: Sn # 12
    coordinates: [  0.750000000000000,  0.500000000000000,  0.125000000000000 ]
    mass: 118.710000
  - symbol: Sn # 13
    coordinates: [  0.250000000000000,  0.000000000000000,  0.625000000000000 ]
    mass: 118.710000
  - symbol: Sn # 14
    coordinates: [  0.750000000000000,  0.000000000000000,  0.625000000000000 ]
    mass: 118.710000
  - symbol: Sn # 15
    coordinates: [  0.250000000000000,  0.500000000000000,  0.625000000000000 ]
    mass: 118.710000
  - symbol: Sn # 16
    coordinates: [  0.750000000000000,  0.500000000000000,  0.625000000000000 ]
    mass: 118.710000
  - symbol: Sn # 17
    coordinates: [  0.250000000000000,  0.250000000000000,  0.250000000000000 ]
    mass: 118.710000
  - symbol: Sn # 18
    coordinates: [  0.750000000000000,  0.250000000000000,  0.250000000000000 ]
    mass: 118.710000
  - symbol: Sn # 19
    coordinates: [  0.250000000000000,  0.750000000000000,  0.250000000000000 ]
    mass: 118.710000
  - symbol: Sn # 20
    coordinates: [  0.750000000000000,  0.750000000000000,  0.250000000000000 ]
    mass: 118.710000
  - symbol: Sn # 21
    coordinates: [  0.250000000000000,  0.250000000000000,  0.750000000000000 ]
    mass: 118.710000
  - symbol: Sn # 22
    coordinates: [  0.750000000000000,  0.250000000000000,  0.750000000000000 ]
    mass: 118.710000
  - symbol: Sn # 23
    coordinates: [  0.250000000000000,  0.750000000000000,  0.750000000000000 ]
    mass: 118.710000
  - symbol: Sn # 24
    coordinates: [  0.750000000000000,  0.750000000000000,  0.750000000000000 ]
    mass: 118.710000
  - symbol: Sn # 25
    coordinates: [  0.000000000000000,  0.250000000000000,  0.375000000000000 ]
    mass: 118.710000
  - symbol: Sn # 26
    coordinates: [  0.500000000000000,  0.250000000000000,  0.375000000000000 ]
    mass: 118.710000
  - symbol: Sn # 27
    coordinates: [  0.000000000000000,  0.750000000000000,  0.375000000000000 ]
    mass: 118.710000
  - symbol: Sn # 28
    coordinates: [  0.500000000000000,  0.750000000000000,  0.375000000000000 ]
    mass: 118.710000
  - symbol: Sn # 29
    coordinates: [  0.000000000000000,  0.250000000000000,  0.875000000000000 ]
    mass: 118.710000
  - symbol: Sn # 30
    coordinates: [  0.500000000000000,  0.250000000000000,  0.875000000000000 ]
    mass: 118.710000
  - symbol: Sn # 31
    coordinates: [  0.000000000000000,  0.750000000000000,  0.875000000000000 ]
    mass: 118.710000
  - symbol: Sn # 32
    coordinates: [  0.500000000000000,  0.750000000000000,  0.875000000000000 ]
    mass: 118.710000

displacements:
- atom:    1
  displacement:
    [   0.0175290548713621,  0.0000000000000000,  0.0096297578015636 ]
  forces:
  - [  -0.0013805900000000,  0.0000000000000000, -0.0003894696875000 ]
  - [  -0.0000180100000000,  0.0000000000000000, -0.0000091696875000 ]
  - [  -0.0000257200000000,  0.0000000000000000, -0.0000083396875000 ]
  - [   0.0000561300000000,  0.0000000000000000,  0.0000055203125000 ]
  - [  -0.0000180900000000,  0.0000000000000000,  0.0002895903125000 ]
  - [   0.0001568600000000,  0.0000000000000000,  0.0000036803125000 ]
  - [   0.0000941600000000,  0.0000000000000000,  0.0000036003125000 ]
  - [  -0.0000402300000000,  0.0000000000000000, -0.0000066896875000 ]
  - [   0.0007345400000000,  0.0000000000000000,  0.0002018303125000 ]
  - [   0.0005131800000000,  0.0000000000000000, -0.0001544596875000 ]
  - [  -0.0000038200000000,  0.0000000000000000,  0.0000375003125000 ]
  - [  -0.0000164700000000,  0.0000000000000000,  0.0000032803125000 ]
  - [  -0.0000322900000000,  0.0000000000000000, -0.0000250396875000 ]
  - [  -0.0000058100000000,  0.0000000000000000,  0.0000188303125000 ]
  - [  -0.0000445600000000,  0.0000000000000000, -0.0000448696875000 ]
  - [   0.0000007400000000,  0.0000000000000000,  0.0000300203125000 ]
  - [   0.0000030600000000,  0.0000230200000000, -0.0000083796875000 ]
  - [   0.0000081300000000, -0.0000318600000000,  0.0000011703125000 ]
  - [   0.0000030600000000, -0.0000230200000000, -0.0000083796875000 ]
  - [   0.0000081300000000,  0.0000318600000000,  0.0000011703125000 ]
  - [   0.0000074300000000,  0.0000141700000000,  0.0000001403125000 ]
  - [   0.0000031300000000, -0.0000158900000000, -0.0000015896875000 ]
  - [   0.0000074300000000, -0.0000141700000000,  0.0000001403125000 ]
  - [   0.0000031300000000,  0.0000158900000000, -0.0000015896875000 ]
  - [   0.0000305500000000,  0.0000106000000000, -0.0000055496875000 ]
  - [  -0.0000295300000000,  0.0000179900000000, -0.0000096096875000 ]
  - [   0.0000305500000000, -0.0000106000000000, -0.0000055496875000 ]
  - [  -0.0000295300000000, -0.0000179900000000, -0.0000096096875000 ]
  - [  -0.0000003300000000, -0.0001013200000000,  0.0000234403125000 ]
  - [  -0.0000074500000000, -0.0000131400000000,  0.0000224703125000 ]
  - [  -0.0000003300000000,  0.0001013200000000,  0.0000234403125000 ]
  - [  -0.0000074500000000,  0.0000131400000000,  0.0000224703125000 ]
- atom:    1
  displacement:
    [  -0.0175290548713621,  0.0000000000000000, -0.0096297578015636 ]
  forces:
  - [   0.0013938796875000,  0.0000000000000000,  0.0003759696875000 ]
  - [  -0.0000155203125000,  0.0000000000000000,  0.0000084096875000 ]
  - [   0.0000400696875000,  0.0000000000000000,  0.0000134596875000 ]
  - [  -0.0000658203125000,  0.0000000000000000, -0.0000050803125000 ]
  - [   0.0000516096875000,  0.0000000000000000, -0.0002933803125000 ]
  - [  -0.0001937103125000,  0.0000000000000000, -0.0000087703125000 ]
  - [  -0.0000786403125000,  0.0000000000000000, -0.0000039403125000 ]
  - [   0.0000288996875000,  0.0000000000000000,  0.0000061396875000 ]
  - [  -0.0007108703125000,  0.0000000000000000, -0.0001928503125000 ]
  - [  -0.0005171303125000,  0.0000000000000000,  0.0001629496875000 ]
  - [  -0.0000113103125000,  0.0000000000000000, -0.0000374603125000 ]
  - [   0.0000278396875000,  0.0000000000000000, -0.0000062303125000 ]
  - [   0.0000176496875000,  0.0000000000000000,  0.0000262196875000 ]
  - [   0.0000185196875000,  0.0000000000000000, -0.0000182103125000 ]
  - [   0.0000321096875000,  0.0000000000000000,  0.0000421196875000 ]
  - [   0.0000092696875000,  0.0000000000000000, -0.0000303203125000 ]
  - [  -0.0000120103125000, -0.0000238300000000,  0.0000081196875000 ]
  - [   0.0000024096875000,  0.0000492600000000, -0.0000041803125000 ]
  - [  -0.0000120103125000,  0.0000238300000000,  0.0000081196875000 ]
  - [   0.0000024096875000, -0.0000492600000000, -0.0000041803125000 ]
  - [  -0.0000163903125000, -0.0000174500000000,  0.0000006996875000 ]
  - [   0.0000064396875000,  0.0000356000000000,  0.0000048296875000 ]
  - [  -0.0000163903125000,  0.0000174500000000,  0.0000006996875000 ]
  - [   0.0000064396875000, -0.0000356000000000,  0.0000048296875000 ]
  - [  -0.0000054603125000, -0.0000039200000000,  0.0000018696875000 ]
  - [   0.0000033396875000, -0.0000091000000000,  0.0000069796875000 ]
  - [  -0.0000054603125000,  0.0000039200000000,  0.0000018696875000 ]
  - [   0.0000033396875000,  0.0000091000000000,  0.0000069796875000 ]
  - [   0.0000260796875000,  0.0001060200000000, -0.0000205003125000 ]
  - [  -0.0000178303125000,  0.0000199200000000, -0.0000173303125000 ]
  - [   0.0000260796875000, -0.0001060200000000, -0.0000205003125000 ]
  - [  -0.0000178303125000, -0.0000199200000000, -0.0000173303125000 ]
