<PP_INFO>
Generated using Vanderbilt code, version   7  3  6                              
Author: kfg        Generation date:   22    9   15                              
Automatically converted from original format                                    
    1        The Pseudo was generated with a Scalar-Relativistic Calculation
  2.10000000000E+00    Local Potential cutoff radius
nl pn  l   occ               Rcut            Rcut US             E pseu
4D  4  2 10.00      0.00000000000      2.00000000000     -2.48307623200
5S  5  0  2.00      0.00000000000      1.70000000000     -1.31451190100
5P  5  1  1.00      0.00000000000      1.80000000000     -0.75587884800
</PP_INFO>


<PP_HEADER>
   0                   Version Number
  Sn                   Element
   US                  Ultrasoft pseudopotential
    T                  Nonlinear Core Correction
SLA  PW   PSX  PSC     PBEsol  Exchange-Correlation functional
   14.00000000000      Z valence
 -158.10398106700      Total energy
    0.00000    0.00000 Suggested cutoff for wfc and rho
    2                  Max angular momentum component
  891                  Number of points in mesh
    3    6             Number of Wavefunctions, Number of Projectors
 Wavefunctions         nl  l   occ
                       4D  2 10.00
                       5S  0  2.00
                       5P  1  1.00
</PP_HEADER>


<PP_MESH>
  <PP_R>
  0.00000000000E+00  1.14441022725E-09  2.31779133734E-09  3.52087673165E-09
  4.75441837771E-09  6.01918727922E-09  7.31597395790E-09  8.64558894766E-09
  1.00088633011E-08  1.14066491092E-08  1.28398200334E-08  1.43092718523E-08
  1.58159230211E-08  1.73607152458E-08  1.89446140719E-08  2.05686094877E-08
  2.22337165432E-08  2.39409759844E-08  2.56914549042E-08  2.74862474088E-08
  2.93264753020E-08  3.12132887860E-08  3.31478671809E-08  3.51314196609E-08
  3.71651860111E-08  3.92504374015E-08  4.13884771822E-08  4.35806416977E-08
  4.58283011220E-08  4.81328603156E-08  5.04957597030E-08  5.29184761731E-08
  5.54025240026E-08  5.79494558023E-08  6.05608634876E-08  6.32383792731E-08
  6.59836766934E-08  6.87984716488E-08  7.16845234777E-08  7.46436360565E-08
  7.76776589269E-08  8.07884884520E-08  8.39780690014E-08  8.72483941668E-08
  9.06015080080E-08  9.40395063301E-08  9.75645379942E-08  1.01178806260E-07
  1.04884570162E-07  1.08684145924E-07  1.12579908404E-07  1.16574292582E-07
  1.20669795076E-07  1.24868975709E-07  1.29174459106E-07  1.33588936334E-07
  1.38115166585E-07  1.42755978901E-07  1.47514273940E-07  1.52393025791E-07
  1.57395283833E-07  1.62524174640E-07  1.67782903937E-07  1.73174758599E-07
  1.78703108712E-07  1.84371409675E-07  1.90183204359E-07  1.96142125326E-07
  2.02251897096E-07  2.08516338475E-07  2.14939364942E-07  2.21524991098E-07
  2.28277333174E-07  2.35200611604E-07  2.42299153661E-07  2.49577396166E-07
  2.57039888257E-07  2.64691294236E-07  2.72536396478E-07  2.80580098430E-07
  2.88827427665E-07  2.97283539035E-07  3.05953717882E-07  3.14843383353E-07
  3.23958091776E-07  3.33303540141E-07  3.42885569659E-07  3.52710169408E-07
  3.62783480084E-07  3.73111797834E-07  3.83701578192E-07  3.94559440117E-07
  4.05692170125E-07  4.17106726534E-07  4.28810243815E-07  4.40810037047E-07
  4.53113606490E-07  4.65728642277E-07  4.78663029215E-07  4.91924851718E-07
  5.05522398855E-07  5.19464169537E-07  5.33758877825E-07  5.48415458375E-07
  5.63443072028E-07  5.78851111533E-07  5.94649207414E-07  6.10847233997E-07
  6.27455315575E-07  6.44483832739E-07  6.61943428869E-07  6.79845016778E-07
  6.98199785543E-07  7.17019207491E-07  7.36315045375E-07  7.56099359719E-07
  7.76384516366E-07  7.97183194199E-07  8.18508393067E-07  8.40373441915E-07
  8.62792007110E-07  8.85778100985E-07  9.09346090596E-07  9.33510706706E-07
  9.58287052984E-07  9.83690615454E-07  1.00973727217E-06  1.03644330314E-06
  1.06382540050E-06  1.09190067896E-06  1.12068668648E-06  1.15020141524E-06
  1.18046331292E-06  1.21149129419E-06  1.24330475255E-06  1.27592357243E-06
  1.30936814168E-06  1.34365936422E-06  1.37881867320E-06  1.41486804432E-06
  1.45183000961E-06  1.48972767152E-06  1.52858471730E-06  1.56842543387E-06
  1.60927472299E-06  1.65115811679E-06  1.69410179375E-06  1.73813259507E-06
  1.78327804142E-06  1.82956635020E-06  1.87702645309E-06  1.92568801420E-06
  1.97558144860E-06  2.02673794131E-06  2.07918946679E-06  2.13296880896E-06
  2.18810958166E-06  2.24464624967E-06  2.30261415024E-06  2.36204951520E-06
  2.42298949359E-06  2.48547217488E-06  2.54953661278E-06  2.61522284964E-06
  2.68257194150E-06  2.75162598374E-06  2.82242813739E-06  2.89502265608E-06
  2.96945491377E-06  3.04577143303E-06  3.12401991418E-06  3.20424926505E-06
  3.28650963161E-06  3.37085242927E-06  3.45733037501E-06  3.54599752038E-06
  3.63690928521E-06  3.73012249233E-06  3.82569540302E-06  3.92368775347E-06
  4.02416079207E-06  4.12717731776E-06  4.23280171921E-06  4.34110001512E-06
  4.45213989544E-06  4.56599076371E-06  4.68272378043E-06  4.80241190754E-06
  4.92512995402E-06  5.05095462263E-06  5.17996455789E-06  5.31224039522E-06
  5.44786481130E-06  5.58692257583E-06  5.72950060442E-06  5.87568801300E-06
  6.02557617344E-06  6.17925877072E-06  6.33683186148E-06  6.49839393403E-06
  6.66404596991E-06  6.83389150705E-06  7.00803670443E-06  7.18659040846E-06
  7.36966422104E-06  7.55737256925E-06  7.74983277692E-06  7.94716513793E-06
  8.14949299146E-06  8.35694279898E-06  8.56964422337E-06  8.78773020997E-06
  9.01133706960E-06  9.24060456383E-06  9.47567599231E-06  9.71669828233E-06
  9.96382208067E-06  1.02172018478E-05  1.04769959542E-05  1.07433667797E-05
  1.10164808148E-05  1.12965087646E-05  1.15836256557E-05  1.18780109455E-05
  1.21798486345E-05  1.24893273808E-05  1.28066406190E-05  1.31319866800E-05
  1.34655689157E-05  1.38075958260E-05  1.41582811887E-05  1.45178441936E-05
  1.48865095794E-05  1.52645077738E-05  1.56520750381E-05  1.60494536144E-05
  1.64568918772E-05  1.68746444887E-05  1.73029725580E-05  1.77421438040E-05
  1.81924327230E-05  1.86541207602E-05  1.91274964857E-05  1.96128557748E-05
  2.01105019928E-05  2.06207461848E-05  2.11439072700E-05  2.16803122411E-05
  2.22302963688E-05  2.27942034109E-05  2.33723858277E-05  2.39652050021E-05
  2.45730314653E-05  2.51962451288E-05  2.58352355212E-05  2.64904020324E-05
  2.71621541628E-05  2.78509117794E-05  2.85571053780E-05  2.92811763527E-05
  3.00235772714E-05  3.07847721588E-05  3.15652367866E-05  3.23654589704E-05
  3.31859388753E-05  3.40271893279E-05  3.48897361371E-05  3.57741184227E-05
  3.66808889524E-05  3.76106144874E-05  3.85638761364E-05  3.95412697189E-05
  4.05434061378E-05  4.15709117609E-05  4.26244288126E-05  4.37046157755E-05
  4.48121478016E-05  4.59477171344E-05  4.71120335417E-05  4.83058247592E-05
  4.95298369452E-05  5.07848351472E-05  5.20716037800E-05  5.33909471158E-05
  5.47436897872E-05  5.61306773024E-05  5.75527765736E-05  5.90108764593E-05
  6.05058883194E-05  6.20387465848E-05  6.36104093421E-05  6.52218589314E-05
  6.68741025613E-05  6.85681729378E-05  7.03051289101E-05  7.20860561322E-05
  7.39120677415E-05  7.57843050548E-05  7.77039382814E-05  7.96721672544E-05
  8.16902221811E-05  8.37593644116E-05  8.58808872269E-05  8.80561166480E-05
  9.02864122641E-05  9.25731680825E-05  9.49178134001E-05  9.73218136965E-05
  9.97866715501E-05  1.02313927577E-04  1.04905161395E-04  1.07561992610E-04
  1.10286081827E-04  1.13079131691E-04  1.15942887949E-04  1.18879140541E-04
  1.21889724722E-04  1.24976522204E-04  1.28141462337E-04  1.31386523310E-04
  1.34713733394E-04  1.38125172201E-04  1.41622971993E-04  1.45209319008E-04
  1.48886454830E-04  1.52656677789E-04  1.56522344396E-04  1.60485870820E-04
  1.64549734392E-04  1.68716475161E-04  1.72988697474E-04  1.77369071610E-04
  1.81860335446E-04  1.86465296166E-04  1.91186832023E-04  1.96027894128E-04
  2.00991508305E-04  2.06080776972E-04  2.11298881089E-04  2.16649082141E-04
  2.22134724177E-04  2.27759235902E-04  2.33526132820E-04  2.39439019428E-04
  2.45501591473E-04  2.51717638261E-04  2.58091045021E-04  2.64625795343E-04
  2.71325973656E-04  2.78195767791E-04  2.85239471592E-04  2.92461487604E-04
  2.99866329821E-04  3.07458626512E-04  3.15243123109E-04  3.23224685175E-04
  3.31408301447E-04  3.39799086951E-04  3.48402286202E-04  3.57223276478E-04
  3.66267571187E-04  3.75540823306E-04  3.85048828920E-04  3.94797530842E-04
  4.04793022328E-04  4.15041550886E-04  4.25549522179E-04  4.36323504033E-04
  4.47370230535E-04  4.58696606250E-04  4.70309710532E-04  4.82216801948E-04
  4.94425322819E-04  5.06942903866E-04  5.19777368987E-04  5.32936740139E-04
  5.46429242358E-04  5.60263308896E-04  5.74447586497E-04  5.88990940794E-04
  6.03902461858E-04  6.19191469875E-04  6.34867520973E-04  6.50940413194E-04
  6.67420192618E-04  6.84317159645E-04  7.01641875429E-04  7.19405168480E-04
  7.37618141437E-04  7.56292177998E-04  7.75438950046E-04  7.95070424936E-04
  8.15198872979E-04  8.35836875110E-04  8.56997330753E-04  8.78693465880E-04
  9.00938841283E-04  9.23747361045E-04  9.47133281235E-04  9.71111218812E-04
  9.95696160769E-04  1.02090347349E-03  1.04674891238E-03  1.07324863167E-03
  1.10041919454E-03  1.12827758349E-03  1.15684121091E-03  1.18612793000E-03
  1.21615604592E-03  1.24694432721E-03  1.27851201755E-03  1.31087884777E-03
  1.34406504821E-03  1.37809136131E-03  1.41297905462E-03  1.44874993410E-03
  1.48542635770E-03  1.52303124938E-03  1.56158811343E-03  1.60112104915E-03
  1.64165476589E-03  1.68321459856E-03  1.72582652340E-03  1.76951717425E-03
  1.81431385920E-03  1.86024457763E-03  1.90733803772E-03  1.95562367444E-03
  2.00513166787E-03  2.05589296212E-03  2.10793928465E-03  2.16130316611E-03
  2.21601796066E-03  2.27211786683E-03  2.32963794888E-03  2.38861415875E-03
  2.44908335847E-03  2.51108334328E-03  2.57465286517E-03  2.63983165717E-03
  2.70666045814E-03  2.77518103827E-03  2.84543622514E-03  2.91746993054E-03
  2.99132717786E-03  3.06705413031E-03  3.14469811968E-03  3.22430767601E-03
  3.30593255784E-03  3.38962378340E-03  3.47543366242E-03  3.56341582887E-03
  3.65362527447E-03  3.74611838305E-03  3.84095296583E-03  3.93818829750E-03
  4.03788515330E-03  4.14010584703E-03  4.24491426995E-03  4.35237593072E-03
  4.46255799638E-03  4.57552933432E-03  4.69136055529E-03  4.81012405758E-03
  4.93189407224E-03  5.05674670951E-03  5.18476000633E-03  5.31601397519E-03
  5.45059065409E-03  5.58857415784E-03  5.73005073062E-03  5.87510879988E-03
  6.02383903166E-03  6.17633438717E-03  6.33269018099E-03  6.49300414058E-03
  6.65737646737E-03  6.82590989943E-03  6.99870977563E-03  7.17588410153E-03
  7.35754361684E-03  7.54380186468E-03  7.73477526250E-03  7.93058317491E-03
  8.13134798822E-03  8.33719518698E-03  8.54825343239E-03  8.76465464271E-03
  8.98653407576E-03  9.21403041339E-03  9.44728584823E-03  9.68644617252E-03
  9.93166086924E-03  1.01830832056E-02  1.04408703286E-02  1.07051833638E-02
  1.09761875153E-02  1.12540521696E-02  1.15389510010E-02  1.18310620807E-02
  1.21305679877E-02  1.24376559227E-02  1.27525178258E-02  1.30753504960E-02
  1.34063557141E-02  1.37457403692E-02  1.40937165878E-02  1.44505018663E-02
  1.48163192070E-02  1.51913972579E-02  1.55759704548E-02  1.59702791686E-02
  1.63745698550E-02  1.67890952088E-02  1.72141143219E-02  1.76498928451E-02
  1.80967031541E-02  1.85548245200E-02  1.90245432834E-02  1.95061530340E-02
  1.99999547934E-02  2.05062572039E-02  2.10253767209E-02  2.15576378111E-02
  2.21033731549E-02  2.26629238547E-02  2.32366396480E-02  2.38248791257E-02
  2.44280099566E-02  2.50464091172E-02  2.56804631272E-02  2.63305682908E-02
  2.69971309449E-02  2.76805677130E-02  2.83813057653E-02  2.90997830858E-02
  2.98364487462E-02  3.05917631867E-02  3.13661985032E-02  3.21602387431E-02
  3.29743802074E-02  3.38091317610E-02  3.46650151508E-02  3.55425653317E-02
  3.64423308012E-02  3.73648739421E-02  3.83107713737E-02  3.92806143128E-02
  4.02750089428E-02  4.12945767927E-02  4.23399551257E-02  4.34117973371E-02
  4.45107733633E-02  4.56375701000E-02  4.67928918319E-02  4.79774606728E-02
  4.91920170166E-02  5.04373200006E-02  5.17141479797E-02  5.30232990131E-02
  5.43655913626E-02  5.57418640047E-02  5.71529771547E-02  5.85998128041E-02
  6.00832752723E-02  6.16042917718E-02  6.31638129872E-02  6.47628136702E-02
  6.64022932481E-02  6.80832764492E-02  6.98068139426E-02  7.15739829954E-02
  7.33858881458E-02  7.52436618934E-02  7.71484654074E-02  7.91014892518E-02
  8.11039541303E-02  8.31571116485E-02  8.52622450968E-02  8.74206702520E-02
  8.96337362002E-02  9.19028261795E-02  9.42293584452E-02  9.66147871556E-02
  9.90606032813E-02  1.01568335537E-01  1.04139551337E-01  1.06775857775E-01
  1.09478902628E-01  1.12250375387E-01  1.15092008314E-01  1.18005577520E-01
  1.20992904082E-01  1.24055855176E-01  1.27196345245E-01  1.30416337200E-01
  1.33717843639E-01  1.37102928111E-01  1.40573706405E-01  1.44132347870E-01
  1.47781076772E-01  1.51522173686E-01  1.55357976920E-01  1.59290883974E-01
  1.63323353045E-01  1.67457904556E-01  1.71697122737E-01  1.76043657237E-01
  1.80500224782E-01  1.85069610872E-01  1.89754671521E-01  1.94558335045E-01
  1.99483603890E-01  2.04533556509E-01  2.09711349288E-01  2.15020218515E-01
  2.20463482406E-01  2.26044543179E-01  2.31766889178E-01  2.37634097055E-01
  2.43649834007E-01  2.49817860066E-01  2.56142030447E-01  2.62626297963E-01
  2.69274715493E-01  2.76091438515E-01  2.83080727701E-01  2.90246951585E-01
  2.97594589291E-01  3.05128233331E-01  3.12852592477E-01  3.20772494707E-01
  3.28892890215E-01  3.37218854515E-01  3.45755591605E-01  3.54508437223E-01
  3.63482862182E-01  3.72684475791E-01  3.82119029358E-01  3.91792419785E-01
  4.01710693257E-01  4.11880049017E-01  4.22306843244E-01  4.32997593024E-01
  4.43958980422E-01  4.55197856664E-01  4.66721246412E-01  4.78536352161E-01
  4.90650558736E-01  5.03071437910E-01  5.15806753137E-01  5.28864464405E-01
  5.42252733207E-01  5.55979927647E-01  5.70054627669E-01  5.84485630418E-01
  5.99281955741E-01  6.14452851823E-01  6.30007800968E-01  6.45956525526E-01
  6.62308993967E-01  6.79075427118E-01  6.96266304545E-01  7.13892371107E-01
  7.31964643667E-01  7.50494417985E-01  7.69493275774E-01  7.88973091937E-01
  8.08946041995E-01  8.29424609690E-01  8.50421594795E-01  8.71950121108E-01
  8.94023644659E-01  9.16655962120E-01  9.39861219425E-01  9.63653920615E-01
  9.88048936904E-01  1.01306151597E+00  1.03870729149E+00  1.06500229291E+00
  1.09196295546E+00  1.11960613043E+00  1.14794909570E+00  1.17700956656E+00
  1.20680570674E+00  1.23735613980E+00  1.26867996076E+00  1.30079674801E+00
  1.33372657561E+00  1.36749002576E+00  1.40210820173E+00  1.43760274099E+00
  1.47399582879E+00  1.51131021199E+00  1.54956921330E+00  1.58879674584E+00
  1.62901732809E+00  1.67025609923E+00  1.71253883484E+00  1.75589196299E+00
  1.80034258080E+00  1.84591847137E+00  1.89264812109E+00  1.94056073753E+00
  1.98968626763E+00  2.04005541645E+00  2.09169966634E+00  2.14465129663E+00
  2.19894340384E+00  2.25460992227E+00  2.31168564534E+00  2.37020624721E+00
  2.43020830517E+00  2.49172932246E+00  2.55480775171E+00  2.61948301901E+00
  2.68579554849E+00  2.75378678765E+00  2.82349923322E+00  2.89497645776E+00
  2.96826313684E+00  3.04340507705E+00  3.12044924452E+00  3.19944379438E+00
  3.28043810079E+00  3.36348278783E+00  3.44862976113E+00  3.53593224032E+00
  3.62544479230E+00  3.71722336531E+00  3.81132532397E+00  3.90780948504E+00
  4.00673615429E+00  4.10816716409E+00  4.21216591213E+00  4.31879740101E+00
  4.42812827888E+00  4.54022688110E+00  4.65516327295E+00  4.77300929341E+00
  4.89383860008E+00  5.01772671521E+00  5.14475107291E+00  5.27499106753E+00
  5.40852810332E+00  5.54544564526E+00  5.68582927127E+00  5.82976672570E+00
  5.97734797413E+00  6.12866525966E+00  6.28381316051E+00  6.44288864916E+00
  6.60599115299E+00  6.77322261635E+00  6.94468756437E+00  7.12049316821E+00
  7.30074931210E+00  7.48556866200E+00  7.67506673602E+00  7.86936197662E+00
  8.06857582465E+00  8.27283279525E+00  8.48226055569E+00  8.69699000512E+00
  8.91715535644E+00  9.14289422017E+00  9.37434769044E+00  9.61166043321E+00
  9.85498077666E+00  1.01044608039E+01  1.03602564482E+01  1.06225275900E+01
  1.08914381573E+01  1.11671562281E+01  1.14498541351E+01  1.17397085736E+01
  1.20369007122E+01  1.23416163057E+01  1.26540458110E+01  1.29743845070E+01
  1.33028326157E+01  1.36395954278E+01  1.39848834311E+01  1.43389124418E+01
  1.47019037396E+01  1.50740842059E+01  1.54556864655E+01  1.58469490323E+01
  1.62481164581E+01  1.66594394857E+01  1.70811752053E+01  1.75135872155E+01
  1.79569457878E+01  1.84115280358E+01  1.88776180882E+01  1.93555072665E+01
  1.98454942669E+01  2.03478853473E+01  2.08629945184E+01  2.13911437403E+01
  2.19326631234E+01  2.24878911349E+01  2.30571748105E+01  2.36408699709E+01
  2.42393414446E+01  2.48529632959E+01  2.54821190583E+01  2.61272019746E+01
  2.67886152427E+01  2.74667722674E+01  2.81620969189E+01  2.88750237978E+01
  2.96059985065E+01  3.03554779281E+01  3.11239305115E+01  3.19118365648E+01
  3.27196885547E+01  3.35479914151E+01  3.43972628623E+01  3.52680337185E+01
  3.61608482439E+01  3.70762644766E+01  3.80148545816E+01  3.89772052082E+01
  3.99639178569E+01  4.09756092552E+01  4.20129117432E+01  4.30764736687E+01
  4.41669597925E+01  4.52850517040E+01  4.64314482470E+01  4.76068659567E+01
  4.88120395073E+01  5.00477221716E+01  5.13146862915E+01  5.26137237608E+01
  5.39456465202E+01  5.53112870647E+01  5.67114989643E+01  5.81471573968E+01
  5.96191596956E+01  6.11284259100E+01  6.26758993806E+01  6.42625473285E+01
  6.58893614605E+01  6.75573585883E+01  6.92675812644E+01  7.10210984337E+01
  7.28190061014E+01  7.46624280185E+01  7.65525163836E+01  7.84904525634E+01
  8.04774478312E+01  8.25147441237E+01  8.46036148174E+01  8.67453655245E+01
  8.89413349088E+01  9.11928955228E+01  9.35014546650E+01  9.58684552602E+01
  9.82953767608E+01  1.00783736072E+02  1.03335088498E+02  1.05951028719E+02
  1.08633191782E+02  1.11383254126E+02  1.14202934630E+02  1.17093995685E+02
  1.20058244300E+02  1.23097533226E+02  1.26213762117E+02  1.29408878718E+02
  1.32684880080E+02  1.36043813812E+02  1.39487779357E+02  1.43018929304E+02
  1.46639470738E+02  1.50351666614E+02  1.54157837177E+02  1.58060361406E+02
  1.62061678506E+02  1.66164289431E+02  1.70370758446E+02  1.74683714731E+02
  1.79105854024E+02  1.83639940307E+02  1.88288807530E+02  1.93055361387E+02
  1.97942581130E+02  2.02953521429E+02  2.08091314286E+02
  </PP_R>
  <PP_RAB>
  1.13016470349E-09  1.15877495917E-09  1.18810948692E-09  1.21818662178E-09
  1.24902516293E-09  1.28064438547E-09  1.31306405244E-09  1.34630442718E-09
  1.38038628602E-09  1.41533093122E-09  1.45116020433E-09  1.48789649980E-09
  1.52556277902E-09  1.56418258464E-09  1.60378005529E-09  1.64437994068E-09
  1.68600761707E-09  1.72868910310E-09  1.77245107610E-09  1.81732088871E-09
  1.86332658604E-09  1.91049692314E-09  1.95886138301E-09  2.00845019501E-09
  2.05929435377E-09  2.11142563853E-09  2.16487663305E-09  2.21968074593E-09
  2.27587223154E-09  2.33348621138E-09  2.39255869606E-09  2.45312660782E-09
  2.51522780356E-09  2.57890109855E-09  2.64418629068E-09  2.71112418532E-09
  2.77975662083E-09  2.85012649471E-09  2.92227779043E-09  2.99625560490E-09
  3.07210617666E-09  3.14987691479E-09  3.22961642853E-09  3.31137455766E-09
  3.39520240369E-09  3.48115236174E-09  3.56927815335E-09  3.65963485998E-09
  3.75227895754E-09  3.84726835159E-09  3.94466241360E-09  4.04452201803E-09
  4.14690958038E-09  4.25188909621E-09  4.35952618114E-09  4.46988811184E-09
  4.58304386812E-09  4.69906417601E-09  4.81802155198E-09  4.93999034826E-09
  5.06504679932E-09  5.19326906950E-09  5.32473730191E-09  5.45953366847E-09
  5.59774242130E-09  5.73944994536E-09  5.88474481247E-09  6.03371783665E-09
  6.18646213089E-09  6.34307316536E-09  6.50364882703E-09  6.66828948094E-09
  6.83709803284E-09  7.01017999358E-09  7.18764354501E-09  7.36959960764E-09
  7.55616190993E-09  7.74744705938E-09  7.94357461544E-09  8.14466716423E-09
  8.35085039512E-09  8.56225317936E-09  8.77900765055E-09  9.00124928731E-09
  9.22911699789E-09  9.46275320703E-09  9.70230394495E-09  9.94791893869E-09
  1.01997517056E-08  1.04579596493E-08  1.07227041583E-08  1.09941507064E-08
  1.12724689566E-08  1.15578328669E-08  1.18504207989E-08  1.21504156297E-08
  1.24580048658E-08  1.27733807604E-08  1.30967404339E-08  1.34282859964E-08
  1.37682246749E-08  1.41167689419E-08  1.44741366491E-08  1.48405511629E-08
  1.52162415042E-08  1.56014424918E-08  1.59963948888E-08  1.64013455534E-08
  1.68165475929E-08  1.72422605220E-08  1.76787504252E-08  1.81262901229E-08
  1.85851593421E-08  1.90556448908E-08  1.95380408379E-08  2.00326486965E-08
  2.05397776127E-08  2.10597445585E-08  2.15928745302E-08  2.21395007514E-08
  2.26999648812E-08  2.32746172281E-08  2.38638169684E-08  2.44679323711E-08
  2.50873410281E-08  2.57224300899E-08  2.63735965078E-08  2.70412472820E-08
  2.77257997161E-08  2.84276816775E-08  2.91473318654E-08  2.98852000846E-08
  3.06417475266E-08  3.14174470583E-08  3.22127835172E-08  3.30282540143E-08
  3.38643682454E-08  3.47216488090E-08  3.56006315335E-08  3.65018658115E-08
  3.74259149439E-08  3.83733564914E-08  3.93447826359E-08  4.03408005503E-08
  4.13620327783E-08  4.24091176232E-08  4.34827095472E-08  4.45834795801E-08
  4.57121157391E-08  4.68693234584E-08  4.80558260307E-08  4.92723650586E-08
  5.05197009185E-08  5.17986132362E-08  5.31099013732E-08  5.44543849275E-08
  5.58329042451E-08  5.72463209452E-08  5.86955184596E-08  6.01814025836E-08
  6.17049020433E-08  6.32669690755E-08  6.48685800229E-08  6.65107359444E-08
  6.81944632410E-08  6.99208142971E-08  7.16908681381E-08  7.35057311056E-08
  7.53665375477E-08  7.72744505293E-08  7.92306625579E-08  8.12363963298E-08
  8.32929054938E-08  8.54014754352E-08  8.75634240788E-08  8.97801027129E-08
  9.20528968338E-08  9.43832270118E-08  9.67725497790E-08  9.92223585402E-08
  1.01734184505E-07  1.04309597648E-07  1.06950207684E-07  1.09657665081E-07
  1.12433662089E-07  1.15279933796E-07  1.18198259214E-07  1.21190462392E-07
  1.24258413554E-07  1.27404030269E-07  1.30629278651E-07  1.33936174584E-07
  1.37326784986E-07  1.40803229099E-07  1.44367679814E-07  1.48022365028E-07
  1.51769569039E-07  1.55611633972E-07  1.59550961241E-07  1.63590013054E-07
  1.67731313951E-07  1.71977452380E-07  1.76331082314E-07  1.80794924915E-07
  1.85371770230E-07  1.90064478935E-07  1.94875984126E-07  1.99809293152E-07
  2.04867489490E-07  2.10053734678E-07  2.15371270288E-07  2.20823419953E-07
  2.26413591443E-07  2.32145278799E-07  2.38022064511E-07  2.44047621762E-07
  2.50225716720E-07  2.56560210897E-07  2.63055063558E-07  2.69714334197E-07
  2.76542185074E-07  2.83542883819E-07  2.90720806097E-07  2.98080438342E-07
  3.05626380565E-07  3.13363349224E-07  3.21296180178E-07  3.29429831703E-07
  3.37769387597E-07  3.46320060353E-07  3.55087194421E-07  3.64076269545E-07
  3.73292904188E-07  3.82742859049E-07  3.92432040655E-07  4.02366505062E-07
  4.12552461633E-07  4.22996276922E-07  4.33704478654E-07  4.44683759803E-07
  4.55940982777E-07  4.67483183708E-07  4.79317576847E-07  4.91451559074E-07
  5.03892714524E-07  5.16648819324E-07  5.29727846454E-07  5.43137970732E-07
  5.56887573922E-07  5.70985249975E-07  5.85439810396E-07  6.00260289756E-07
  6.15455951337E-07  6.31036292922E-07  6.47011052733E-07  6.63390215513E-07
  6.80184018774E-07  6.97402959188E-07  7.15057799154E-07  7.33159573521E-07
  7.51719596489E-07  7.70749468674E-07  7.90261084368E-07  8.10266638965E-07
  8.30778636587E-07  8.51809897901E-07  8.73373568131E-07  8.95483125271E-07
  9.18152388514E-07  9.41395526889E-07  9.65227068114E-07  9.89661907677E-07
  1.01471531815E-06  1.04040295872E-06  1.06674088502E-06  1.09374555909E-06
  1.12143385974E-06  1.14982309306E-06  1.17893100325E-06  1.20877578368E-06
  1.23937608833E-06  1.27075104338E-06  1.30292025920E-06  1.33590384260E-06
  1.36972240938E-06  1.40439709726E-06  1.43994957904E-06  1.47640207619E-06
  1.51377737269E-06  1.55209882932E-06  1.59139039825E-06  1.63167663799E-06
  1.67298272874E-06  1.71533448815E-06  1.75875838746E-06  1.80328156801E-06
  1.84893185824E-06  1.89573779107E-06  1.94372862174E-06  1.99293434606E-06
  2.04338571923E-06  2.09511427499E-06  2.14815234538E-06  2.20253308090E-06
  2.25829047131E-06  2.31545936677E-06  2.37407549971E-06  2.43417550711E-06
  2.49579695346E-06  2.55897835414E-06  2.62375919959E-06  2.69017997996E-06
  2.75828221038E-06  2.82810845698E-06  2.89970236342E-06  2.97310867824E-06
  3.04837328276E-06  3.12554321981E-06  3.20466672313E-06  3.28579324746E-06
  3.36897349954E-06  3.45425946973E-06  3.54170446453E-06  3.63136313991E-06
  3.72329153546E-06  3.81754710943E-06  3.91418877461E-06  4.01327693520E-06
  4.11487352451E-06  4.21904204373E-06  4.32584760156E-06  4.43535695496E-06
  4.54763855085E-06  4.66276256886E-06  4.78080096527E-06  4.90182751791E-06
  5.02591787232E-06  5.15314958900E-06  5.28360219193E-06  5.41735721822E-06
  5.55449826912E-06  5.69511106226E-06  5.83928348520E-06  5.98710565040E-06
  6.13866995153E-06  6.29407112122E-06  6.45340629024E-06  6.61677504827E-06
  6.78427950610E-06  6.95602435947E-06  7.13211695450E-06  7.31266735480E-06
  7.49778841024E-06  7.68759582751E-06  7.88220824243E-06  8.08174729408E-06
  8.28633770088E-06  8.49610733848E-06  8.71118731975E-06  8.93171207666E-06
  9.15781944437E-06  9.38965074734E-06  9.62735088769E-06  9.87106843575E-06
  1.01209557229E-05  1.03771689368E-05  1.06398682192E-05  1.09092177655E-05
  1.11853859281E-05  1.14685453210E-05  1.17588729280E-05  1.20565502134E-05
  1.23617632352E-05  1.26747027614E-05  1.29955643894E-05  1.33245486682E-05
  1.36618612236E-05  1.40077128871E-05  1.43623198271E-05  1.47259036846E-05
  1.50986917112E-05  1.54809169116E-05  1.58728181890E-05  1.62746404946E-05
  1.66866349802E-05  1.71090591558E-05  1.75421770504E-05  1.79862593767E-05
  1.84415837006E-05  1.89084346147E-05  1.93871039159E-05  1.98778907881E-05
  2.03811019892E-05  2.08970520425E-05  2.14260634335E-05  2.19684668117E-05
  2.25246011968E-05  2.30948141908E-05  2.36794621956E-05  2.42789106350E-05
  2.48935341839E-05  2.55237170021E-05  2.61698529742E-05  2.68323459564E-05
  2.75116100282E-05  2.82080697519E-05  2.89221604374E-05  2.96543284147E-05
  3.04050313126E-05  3.11747383448E-05  3.19639306034E-05  3.27731013590E-05
  3.36027563699E-05  3.44534141973E-05  3.53256065302E-05  3.62198785171E-05
  3.71367891072E-05  3.80769113993E-05  3.90408330006E-05  4.00291563934E-05
  4.10424993119E-05  4.20814951287E-05  4.31467932497E-05  4.42390595210E-05
  4.53589766447E-05  4.65072446053E-05  4.76845811078E-05  4.88917220257E-05
  5.01294218614E-05  5.13984542176E-05  5.26996122809E-05  5.40337093174E-05
  5.54015791812E-05  5.68040768354E-05  5.82420788867E-05  5.97164841334E-05
  6.12282141265E-05  6.27782137466E-05  6.43674517939E-05  6.59969215939E-05
  6.76676416183E-05  6.93806561215E-05  7.11370357933E-05  7.29378784281E-05
  7.47843096113E-05  7.66774834225E-05  7.86185831568E-05  8.06088220649E-05
  8.26494441108E-05  8.47417247497E-05  8.68869717252E-05  8.90865258864E-05
  9.13417620264E-05  9.36540897410E-05  9.60249543104E-05  9.84558376021E-05
  1.00948258997E-04  1.03503776341E-04  1.06123986913E-04  1.08810528433E-04
  1.11565080074E-04  1.14389363523E-04  1.17285144047E-04  1.20254231604E-04
  1.23298481971E-04  1.26419797902E-04  1.29620130323E-04  1.32901479544E-04
  1.36265896517E-04  1.39715484111E-04  1.43252398430E-04  1.46878850162E-04
  1.50597105956E-04  1.54409489844E-04  1.58318384690E-04  1.62326233679E-04
  1.66435541849E-04  1.70648877650E-04  1.74968874556E-04  1.79398232703E-04
  1.83939720586E-04  1.88596176782E-04  1.93370511727E-04  1.98265709537E-04
  2.03284829870E-04  2.08431009839E-04  2.13707465974E-04  2.19117496232E-04
  2.24664482059E-04  2.30351890499E-04  2.36183276371E-04  2.42162284478E-04
  2.48292651896E-04  2.54578210304E-04  2.61022888381E-04  2.67630714259E-04
  2.74405818047E-04  2.81352434403E-04  2.88474905190E-04  2.95777682183E-04
  3.03265329856E-04  3.10942528233E-04  3.18814075811E-04  3.26884892565E-04
  3.35160023018E-04  3.43644639395E-04  3.52344044859E-04  3.61263676821E-04
  3.70409110341E-04  3.79786061612E-04  3.89400391536E-04  3.99258109380E-04
  4.09365376539E-04  4.19728510385E-04  4.30353988213E-04  4.41248451292E-04
  4.52418709018E-04  4.63871743164E-04  4.75614712250E-04  4.87654956014E-04
  5.00000000000E-04  5.12657560262E-04  5.25635548188E-04  5.38942075442E-04
  5.52585459038E-04  5.66574226533E-04  5.80917121364E-04  5.95623108306E-04
  6.10701379080E-04  6.26161358096E-04  6.42012708344E-04  6.58265337434E-04
  6.74929403788E-04  6.92015322990E-04  7.09533774297E-04  7.27495707309E-04
  7.45912348821E-04  7.64795209832E-04  7.84156092745E-04  8.04007098743E-04
  8.24360635350E-04  8.45229424190E-04  8.66626508934E-04  8.88565263457E-04
  9.11059400195E-04  9.34122978716E-04  9.57770414507E-04  9.82016487985E-04
  1.00687635374E-03  1.03236554998E-03  1.05850000831E-03  1.08529606359E-03
  1.11277046425E-03  1.14094038266E-03  1.16982342596E-03  1.19943764698E-03
  1.22980155558E-03  1.26093413018E-03  1.29285482966E-03  1.32558360549E-03
  1.35914091423E-03  1.39354773028E-03  1.42882555903E-03  1.46499645027E-03
  1.50208301197E-03  1.54010842446E-03  1.57909645484E-03  1.61907147192E-03
  1.66005846137E-03  1.70208304140E-03  1.74517147873E-03  1.78935070505E-03
  1.83464833381E-03  1.88109267750E-03  1.92871276535E-03  1.97753836146E-03
  2.02759998342E-03  2.07892892138E-03  2.13155725758E-03  2.18551788646E-03
  2.24084453517E-03  2.29757178465E-03  2.35573509130E-03  2.41537080906E-03
  2.47651621220E-03  2.53920951859E-03  2.60348991359E-03  2.66939757454E-03
  2.73697369586E-03  2.80626051485E-03  2.87730133800E-03  2.95014056816E-03